 -7.0942556e-06   6.6945091e-07
  2.7639221e-06   8.0248748e-07
  5.7697694e-06   4.1682509e-07
 -1.2869463e-06   6.5489621e-07
 -3.5117746e-06   6.4217079e-07
  7.2839143e-06   2.2456502e-06
  8.3684954e-06   1.5475460e-07
  3.1657812e-06   2.8375453e-07
  2.0842210e-05   5.1235799e-07
  1.0699963e-05   4.5666475e-06
 -1.0144846e-05   2.9142361e-06
 -2.2562945e-06   4.7879877e-07
 -2.1332726e-05   9.5101518e-07
 -7.3033243e-06   3.0300557e-06
  1.5834918e-05   8.1051729e-07
  1.0946859e-05   8.2473173e-07
  3.8042306e-06   1.4164526e-06
 -2.6616994e-05   9.1614982e-07
 -7.0696347e-05   8.8484590e-08
 -8.5641915e-08   1.2641714e-06
  1.0261655e-05   1.7788383e-06
 -2.5981533e-06   1.7012221e-06
 -4.3643166e-05   1.6386532e-06
 -1.6875620e-05   1.7331463e-09
  1.1017048e-05   2.0842845e-06
  3.7583541e-07   1.8125866e-06
 -9.4653427e-07   1.8980749e-07
  1.8552366e-05   9.1113861e-07
  3.4736258e-06   2.7328767e-07
 -7.1749314e-06   3.7792012e-07
 -9.4215102e-06   1.3281075e-06
 -2.2355638e-05   6.2258593e-08
  9.2093541e-07   3.2464000e-06
  1.5695876e-05   3.8202174e-08
 -5.6144972e-07   1.2877783e-07
  2.7744714e-05   2.6618932e-07
 -2.0680627e-05   1.7379691e-06
 -2.2988590e-06   1.9571537e-07
  2.8789973e-06   2.9860569e-06
  2.0900870e-06   6.8262574e-07
 -4.6288724e-06   3.7411151e-06
 -1.1557864e-05   3.2424434e-06
 -6.7227579e-06   1.7761877e-06
  3.3324227e-06   5.3801688e-07
 -4.8970551e-06   4.1729456e-07
 -2.0289906e-06   4.0681360e-07
  1.9936782e-05   2.4793616e-07
  1.1984896e-06   1.2151346e-06
  2.7289236e-06   2.8514039e-06
  8.3776945e-07   8.3601896e-07
  5.4962970e-06   1.6236555e-06
  1.5131150e-06   3.6592908e-06
  2.8918222e-08   7.7559832e-07
 -5.6371427e-06   1.6170627e-06
  1.9183040e-05   5.8833145e-08
  1.5805950e-05   8.4617898e-07
 -3.1606200e-05   4.3318215e-07
 -2.3498555e-05   2.1778396e-06
  3.7616473e-06   2.0718744e-06
 -3.3794262e-07   2.8920164e-07
  3.0013709e-07   8.6590887e-08
  8.4057156e-06   1.9068100e-06
 -5.1586335e-06   3.0977532e-07
 -4.3760037e-06   6.6554873e-07
 -1.7796248e-06   2.4359210e-06
 -3.0822921e-06   1.5924812e-07
  7.1050299e-06   1.1744556e-06
 -1.6407519e-05   2.5845038e-06
 -1.6579317e-05   2.5927636e-06
  1.3752940e-06   3.5490996e-07
 -1.1835690e-05   6.8742884e-07
 -2.5541351e-07   3.6246897e-07
 -1.2428837e-05   2.0321415e-06
 -2.0956495e-05   2.5721313e-06
  1.3649262e-05   2.5466886e-07
 -2.2953475e-06   2.5460000e-07
  5.2597841e-07   9.2925342e-07
  1.0706036e-05   1.2098915e-06
  1.5496690e-06   1.2739498e-06
 -1.1644357e-06   1.6755730e-06
 -4.9147116e-06   5.0205881e-07
  1.3751412e-05   1.9096690e-06
  1.6990705e-05   1.9869090e-07
  5.9577442e-06   2.6297848e-06
 -2.1675747e-05   4.4398348e-06
  8.5344200e-06   1.0628173e-06
  9.1782647e-07   2.7311501e-07
 -3.3837575e-06   3.4686209e-07
 -1.3026039e-05   9.6344274e-07
 -1.0172202e-07   1.1080514e-06
  5.1321753e-04   8.7219473e-07
  7.2642797e-01   5.3019239e-06
  5.1114953e-01   2.7142158e-07
  2.0591004e-01   1.5726816e-07
  1.2676908e-01   7.0583593e-07
  1.4540446e-01   6.1261671e-06
  3.1902488e-02   2.0031769e-06
  3.1420803e-01   9.6802441e-06
  6.4571619e-02   1.1685292e-05
 -1.9345213e-01   7.8101966e-06
  1.8082051e-02   7.7530431e-06
  1.5182593e-01   3.8814281e-07
  7.2866958e-01   2.3025639e-05
 -5.4496884e-01   6.1091026e-07
  2.4342832e-01   5.8689698e-06
 -9.1411644e-01   9.0027543e-06
 -8.8324881e-01   5.8998221e-06
  3.7681395e-01   5.8392197e-06
  8.1896451e-06   1.6507150e-07
 -4.0918922e-01   1.8617708e-06
 -5.1929724e-01   2.4253961e-05
  1.1694712e-01   1.8925044e-05
 -3.9908504e-01   2.4335035e-05
  2.5814021e-01   7.2770934e-05
  9.3482143e-01   1.9103547e-05
  7.9774879e-02   2.4135627e-05
  1.8305958e-03   9.8033297e-07
  1.2301427e-02   3.6129909e-06
  9.0642437e-02   1.0719175e-05
 -3.4670006e-02   2.9572921e-06
  3.6037206e-06   3.3269816e-06
 -6.8865927e-07   1.1025593e-06
 -1.0163611e-05   1.4270955e-06
  1.2737962e-06   1.9056242e-07
 -6.9614484e-06   6.5144570e-07
 -2.7959857e-05   4.1976395e-07
  1.1410273e-06   3.5750954e-06
  3.3186279e-05   1.7936317e-06
 -1.5363173e-06   1.9377619e-06
 -2.6969515e-06   6.4648027e-08
  6.4293263e-06   1.0953731e-06
 -2.0395717e-06   7.0353087e-07
  2.9004148e-06   9.6584733e-07
  3.6831707e-06   2.0549027e-07
  1.0895131e-06   7.6925135e-06
  6.9677043e-08   1.9675429e-07
 -1.0053031e-05   5.2970790e-07
 -9.8540213e-06   3.8453049e-07
 -9.8031087e-06   7.6147330e-07
 -1.6041472e-06   3.7726579e-08
 -5.9712579e-06   5.2331609e-07
  5.0544982e-06   1.1780961e-06
 -5.2399662e-07   2.7005558e-07
 -9.4197549e-06   3.5795523e-08
  6.6221933e-06   2.9868104e-07
 -2.5549398e-06   3.1764611e-07
 -9.0235371e-06   1.1081896e-06
 -1.9325098e-06   1.0410826e-06
  5.2872529e-06   8.9050394e-07
  1.1227748e-06   9.1210990e-07
 -1.2578042e-05   7.1563278e-07
  1.0112515e-05   2.7147726e-06
  1.6105538e-05   1.9641566e-06
 -3.3282358e-06   1.6008835e-06
 -1.0366326e-06   6.6221497e-07
 -5.4135646e-05   3.5637552e-06
  2.3626592e-06   1.1727667e-06
  2.2095530e-06   3.6012057e-07
  4.8196039e-06   4.4911238e-07
  6.8094778e-08   5.9978765e-06
 -2.5824827e-06   3.1887393e-07
 -1.9826528e-05   2.5556278e-06
 -1.3139540e-05   3.2986932e-06
 -2.5353388e-06   1.1726141e-07
  4.0005084e-06   9.5034693e-07
 -2.4162355e-05   1.6888749e-06
 -7.6533679e-06   2.8103502e-06
  4.9654602e-07   8.1646311e-07
 -5.8290670e-06   1.7735201e-07
  5.1464667e-06   1.4925450e-06
 -3.9654351e-06   1.1311409e-06
 -6.1812773e-07   1.1281643e-06
  8.2644647e-06   3.2999839e-07
 -2.1367548e-05   1.5189578e-06
  8.3903969e-06   7.7726060e-07
  9.9289246e-06   1.8162989e-06
 -3.1769025e-06   1.2632219e-06
  2.2611986e-05   8.4599310e-07
 -1.1441170e-06   2.2682437e-07
 -3.0654942e-06   2.7608196e-06
 -4.4354119e-06   1.0827123e-06
  3.0550516e-06   1.7140663e-07
  3.7514856e-05   5.4406772e-08
 -3.5690446e-06   3.3010224e-07
  1.4065094e-05   2.3619541e-06
 -6.7476344e-06   2.3442908e-06
  4.3538614e-07   4.5453507e-07
 -3.4482153e-05   1.3069649e-07
  2.9240757e-05   1.9529984e-06
 -8.4423127e-06   8.9988208e-07
 -1.0134338e-05   4.4539147e-06
  2.8677875e-06   1.6987696e-06
 -5.4422662e-06   5.0361854e-07
 -3.4363054e-06   2.2430113e-06
  1.0889888e-05   9.9391923e-07
  3.3862916e-06   7.8417393e-08
 -4.5462696e-07   5.5916435e-06
 -7.3711662e-06   4.1009218e-07
  2.0580253e-05   3.0510410e-08
 -2.9800810e-07   2.0856251e-07
 -8.2257829e-06   7.3964509e-07
  8.8481295e-07   2.9509197e-06
  4.6358855e-06   1.7349984e-06
  3.8354378e-06   6.9885829e-07
 -3.5201465e-06   1.5974888e-06
 -8.1958951e-06   3.7605087e-06
  1.3318908e-05   1.9511290e-06
 -1.3950666e-06   3.9329274e-07
  2.2015984e-05   1.7630168e-06
 -3.2403661e-06   1.3479870e-06
  2.8175903e-06   9.2676146e-08
 -7.0111187e-06   8.8412088e-07
  2.0549708e-06   2.0249893e-06
 -6.1298493e-07   3.1876877e-07
 -1.5630438e-06   2.2029565e-07
 -1.4865095e-05   3.6617514e-06
  1.5594867e-05   3.9224275e-07
  1.0066755e-05   6.7631413e-07
  5.1843932e-07   6.2976930e-08
  6.5445060e-06   1.0199660e-06
  8.7747239e-06   9.2197030e-07
  8.7228655e-05   5.4116008e-08
 -9.9601812e-06   8.3608785e-07
  2.7554645e-06   2.4180297e-06
 -1.7507574e-07   1.4279856e-06
  1.0152404e-05   3.7975028e-07
 -2.7656952e-06   1.6496914e-06
 -3.0681999e-06   7.6440773e-07
 -9.2628704e-07   6.3229442e-07
 -2.3621769e-06   1.0141297e-06
  2.8213326e-06   1.4538647e-06
  6.5245140e-06   1.9462693e-06
 -1.8282923e-05   4.2825810e-08
 -7.3542215e-06   1.0234745e-06
  1.2812227e-06   2.3625873e-06
  2.0039091e-05   9.2385272e-07
 -1.0647945e-05   7.7376876e-07
 -8.9404722e-08   7.3434086e-07
  2.4250683e-05   3.6927070e-06
 -1.3835707e-05   1.0352434e-06
  2.5839815e-06   2.9588304e-07
 -1.7619610e-06   1.3202555e-07
  1.4045807e-05   7.0438495e-07
  1.1224173e-05   3.6760878e-06
  8.8546349e-06   2.2314145e-08
  2.8023628e-06   3.6997781e-07
  1.4108183e-06   2.0248751e-06
  1.2620724e-06   1.9055048e-07
  2.8569963e-07   1.1409728e-07
 -7.9090969e-06   8.6009231e-07
 -1.6041466e-05   1.6061107e-06
 -1.7383031e-06   1.0663549e-06
 -3.5667981e-06   1.9240940e-06
 -1.7270106e-05   1.2934250e-06
  1.5934253e-05   8.2591509e-07
 -4.9086866e-06   6.8259430e-07
 -4.9628161e-06   3.9544503e-07
 -6.2599661e-06   3.4047687e-06
 -2.6459911e-05   3.2973287e-06
  5.5931591e-06   4.7650661e-07
  6.5852687e-06   2.0768493e-06
 -2.3779082e-06   2.5973918e-06
 -2.8278755e-05   5.9033832e-06
  8.7322869e-06   1.1303304e-06
 -4.2662145e-06   8.6099766e-07
 -3.5302628e-06   9.6507063e-07
  4.8716925e-06   2.2096781e-06
  7.9740093e-06   2.2462027e-06
 -5.0220113e-08   2.4031658e-07
 -6.0620478e-06   9.2025641e-07
 -7.2661334e-01   8.8892364e-07
 -6.7431045e-01   9.6324957e-06
  1.8821575e-01   5.5662949e-06
  1.0178812e+00   4.3564759e-07
 -2.5340918e-01   2.2499589e-06
 -1.5250325e-01   1.0676787e-05
 -4.8888857e-03   6.1402748e-06
  6.9995120e-02   2.5460726e-05
 -1.4520276e-03   6.6605061e-08
 -1.1411917e-01   8.6225809e-06
 -2.8471318e-01   3.0331755e-06
  4.4999313e-01   4.3602413e-06
  2.0255558e-02   3.5003418e-07
 -6.3876487e-02   2.8161889e-05
  2.8664944e-01   1.1653871e-06
  8.2086161e-02   2.8415404e-06
 -7.5790772e-06   3.0726292e-06
 -1.8717290e-01   4.0861727e-07
 -4.0710647e-02   2.1548231e-06
  4.8667368e-01   2.2391973e-06
  1.0106780e-01   6.9764965e-06
 -2.3891160e-01   7.5205262e-06
  1.8940949e-01   4.4553828e-05
 -8.1391156e-02   3.3125438e-05
 -2.4739292e-01   5.0564886e-05
 -1.8302457e-02   3.1101879e-06
 -3.5193671e-07   3.3074637e-06
 -5.2426789e-02   1.0653592e-04
 -1.9504570e-05   1.0598526e-05
 -3.8516298e-02   5.5606802e-06
  6.0015091e-06   3.6067167e-06
  6.2065287e-06   3.8545395e-06
 -8.4846033e-06   1.5890649e-06
 -2.7713177e-06   1.4726734e-06
 -3.0778628e-07   3.3531421e-06
 -7.4018676e-06   2.5223360e-06
  1.2423259e-05   2.0116206e-06
  3.6805459e-06   1.5804044e-06
  4.3764926e-06   3.6671477e-07
 -5.4155521e-07   1.3016651e-07
  2.1888698e-06   1.8303075e-06
 -4.4568314e-06   9.9953661e-07
 -6.2063559e-06   1.7805347e-06
  1.7193123e-06   5.0007070e-06
  6.3082513e-07   8.2619459e-07
  7.2324688e-06   1.5329874e-06
  3.4624556e-04   6.7805694e-08
  1.7347464e-06   1.0667034e-06
 -2.7529857e-06   1.1444691e-06
 -7.8254197e-06   1.5016986e-06
 -2.6018479e-06   2.2647600e-06
  1.2749070e-06   3.7732286e-07
  1.2179676e-05   1.0046346e-06
 -7.9104757e-06   9.3928304e-07
 -9.1427819e-06   6.1139389e-07
  8.1587004e-06   9.7789518e-07
 -5.1378461e-06   3.1984537e-06
  2.3083046e-06   1.6099117e-06
 -3.8709044e-05   7.1156229e-08
  1.3564904e-06   3.9480693e-07
  3.0609328e-05   2.8197744e-07
 -1.9220420e-06   2.6481430e-06
 -1.4480856e-06   5.0093638e-07
  6.8264617e-06   3.2917310e-06
  2.5899895e-05   3.5991054e-06
 -1.9956715e-05   3.1524394e-08
  1.3388111e-05   4.6600886e-07
  2.3874059e-05   5.5747404e-07
 -6.6616840e-06   2.5003342e-07
  3.4922919e-05   7.1581439e-08
 -9.3352810e-06   2.9719314e-07
 -1.0358189e-05   6.8849261e-08
 -6.0198845e-06   4.6763526e-07
 -1.7157796e-05   1.6002821e-06
 -1.7323902e-05   3.4783980e-07
  3.4886273e-06   2.0907505e-06
 -1.2338607e-05   3.4310426e-07
 -9.5213218e-06   1.7887570e-06
  3.5551004e-06   3.1875729e-06
 -7.5954877e-06   7.3859280e-07
  9.3387634e-06   3.0093167e-06
  3.0986926e-06   2.9260034e-06
 -6.3459006e-06   1.7287933e-07
  1.3395945e-06   1.8238673e-07
 -2.6919033e-06   1.6306402e-06
 -2.3111077e-06   7.1424090e-08
 -8.8179750e-06   3.1160712e-07
 -5.6845402e-06   4.7736842e-07
 -1.4487937e-06   2.7351984e-06
  3.0559925e-06   1.1949248e-06
 -5.5284357e-01   1.1968263e-05
 -1.3450530e-03   1.1442223e-06
  7.8728795e-01   1.9856141e-06
 -5.0936925e-01   1.2391024e-06
 -2.7115348e-05   2.0642449e-06
  1.1861348e-01   1.8984849e-06
  5.7181180e-02   2.1792011e-06
  2.6389566e-01   8.7726687e-07
 -9.4299827e-04   3.4073651e-07
  2.4253689e-01   3.7489458e-06
 -3.9010527e-04   5.6126160e-06
  3.4777448e-03   2.5879522e-06
 -3.9645083e-02   1.0284200e-06
  3.4237683e-01   7.8854171e-08
  1.0528074e-01   5.8535090e-07
  1.2671204e-01   3.3028027e-06
  7.0531882e-02   7.0630949e-07
  7.6812888e-05   1.9608669e-06
  1.3144446e-05   2.9153043e-07
  1.0642723e-01   5.5015125e-06
  1.1352011e-01   8.0352436e-07
 -5.9051283e-02   2.4042982e-05
  2.8808379e-01   1.0258318e-05
  8.3496898e-06   8.6676646e-06
 -1.2069738e-01   1.7514885e-05
  1.0973502e-06   1.6623101e-06
 -1.4315527e-03   1.8880675e-05
 -4.2323321e-05   2.4947421e-06
 -1.1967639e-06   4.5696117e-07
  1.6580239e-01   1.6236315e-06
 -1.9714924e-05   7.2280618e-06
 -9.8721575e-06   4.7356926e-07
  1.0407400e-05   9.1235876e-08
  1.7760904e-05   2.9991014e-07
 -2.7125948e-06   3.2001810e-06
  2.3074626e-05   1.9860715e-06
  1.2291885e-06   2.8164548e-06
  1.7850500e-06   8.4213053e-07
  1.5161800e-05   1.0099866e-06
 -7.2572475e-06   1.5168735e-06
 -1.1141988e-06   2.7260256e-07
  3.0498325e-06   4.4099629e-06
  5.6898566e-06   2.0533771e-07
  1.3107473e-05   3.7370609e-07
 -5.2562937e-06   9.6412116e-08
 -2.4730865e-05   2.7521025e-07
  1.0102026e-06   1.2800939e-07
  4.2581778e-06   3.7025486e-06
  1.9149275e-05   1.3404933e-06
 -8.2974411e-06   2.1982621e-06
  2.6756697e-06   9.3964434e-07
 -4.6403634e-06   3.3763658e-07
  1.3095158e-05   1.3411781e-07
 -5.3760145e-06   2.3194777e-07
  3.3532285e-06   1.7489944e-06
 -1.6962907e-05   5.5871697e-06
  2.8654852e-06   3.1056098e-07
 -1.4995939e-05   1.2951832e-06
 -1.8593790e-06   2.1649105e-06
 -6.3921671e-06   2.7445017e-07
 -2.5552426e-06   2.4598887e-06
  6.3029365e-06   8.9724688e-07
 -4.6634195e-06   1.6130571e-06
 -3.4361638e-06   2.3489076e-07
  2.6661830e-06   2.8248865e-06
  6.8466502e-06   6.4568077e-08
 -1.0208206e-05   1.5794410e-07
 -2.2788181e-06   1.8195099e-07
 -8.6313521e-06   2.8825316e-06
  7.6695811e-05   9.4168875e-08
  1.1868662e-05   2.4518494e-07
 -2.7202993e-06   3.5891780e-06
 -2.3907980e-06   2.8376921e-06
  5.9264943e-07   6.9779321e-07
 -3.0382487e-06   7.8606297e-07
  4.6059331e-06   4.0548267e-07
  3.3324632e-10   1.4808249e-07
 -2.0667383e-05   1.2313942e-07
 -9.2296193e-07   2.4397016e-06
  2.7875387e-05   3.7899525e-07
  4.7473391e-06   1.7390129e-06
 -4.9616401e-06   1.1340576e-06
  3.4472530e-06   6.3312609e-07
  1.3469104e-06   3.0363654e-07
  3.3857168e-06   7.4296531e-07
 -1.1044533e-05   2.1873440e-07
 -1.0094816e-06   2.7056359e-07
 -7.9793890e-06   6.8376886e-07
  1.2339969e-05   3.7445998e-06
 -4.3920422e-06   6.7066213e-07
 -2.1500077e-06   1.0003439e-06
  9.5909616e-07   1.3588691e-06
 -2.4024243e-05   1.0840090e-06
  9.1686279e-06   1.0911086e-06
 -1.9760155e-05   2.3956839e-06
  2.2939528e-05   3.0387048e-06
 -2.9206972e-06   2.5250565e-06
  2.1193059e-06   1.6552744e-06
 -2.2374536e-06   5.9486024e-07
 -1.3613126e-06   3.5068979e-08
 -7.7119157e-06   6.6240574e-07
  3.9642084e-05   1.9153451e-07
  1.1646011e-05   4.5101578e-07
  1.6958969e-05   1.6903610e-07
 -9.5968735e-06   1.6181172e-06
  2.9632462e-05   4.2044799e-06
 -5.8517799e-06   7.4480005e-07
  2.1613480e-06   1.4696380e-07
  9.3942090e-06   3.0460292e-06
  4.3450527e-06   8.0236356e-07
 -2.0260088e-05   2.3855564e-06
 -3.2746520e-06   1.3599022e-06
 -4.4749697e-08   1.4435432e-06
  5.5757869e-06   1.1570925e-06
 -3.3967066e-05   1.5051349e-07
 -3.4888569e-06   8.7364532e-07
  2.0844632e-06   5.8820149e-07
  1.2711045e-05   5.9925645e-07
  3.5788295e-07   6.7825675e-07
 -4.1759304e-06   1.0751565e-06
 -2.1660524e-06   4.4948726e-07
 -1.5538839e-05   3.6802166e-07
  3.8922394e-06   5.1789680e-08
  9.6081849e-06   6.9862665e-07
  6.2336612e-06   7.2907142e-07
  2.2239792e-06   1.7900455e-06
 -2.0054138e-06   6.5552870e-09
 -1.0600337e-05   4.7082901e-07
  4.4038652e-06   5.2414185e-07
  1.0144104e-06   3.9351184e-07
  2.4844564e-06   1.8986090e-07
 -6.7599603e-06   3.0018177e-06
 -5.8309947e-06   1.3723076e-07
  8.8272282e-07   1.3869506e-07
 -5.9802856e-06   4.8842978e-08
  4.9137700e-05   8.0760614e-08
 -6.0572338e-06   1.5157442e-06
 -1.7634419e-06   3.3822909e-07
 -1.5136286e-05   3.6194015e-07
  1.0953240e-06   1.5182839e-06
 -1.1731760e-05   1.9154024e-06
 -1.1650924e-05   1.2886862e-06
  1.3649878e-05   1.0325006e-06
 -9.6117938e-06   7.1964575e-07
  1.5462938e-05   8.1916062e-07
  4.6131609e-06   1.7652366e-06
  1.7322046e-06   1.5634216e-06
  1.3626969e-05   4.7450615e-07
 -1.2583412e-05   7.8536111e-08
 -1.2018531e-05   2.2488271e-06
 -4.8280203e-06   2.3102032e-06
 -5.8349005e-06   6.0575695e-07
  1.6253483e-05   3.1608888e-08
 -1.6332766e-05   9.4749601e-07
 -3.0087971e-05   9.1568808e-07
 -1.1365950e-06   1.0525283e-06
 -1.7881006e-05   6.2317918e-07
  1.4294715e-05   4.0569121e-06
  1.9172201e-05   2.6376240e-06
  1.6764736e-05   9.0511469e-07
  1.0084315e-05   5.3961207e-07
 -4.7935555e-06   1.6147787e-08
  7.4069299e-06   1.4605669e-06
 -7.1503300e-06   3.0246968e-06
  5.0214203e-06   1.3338406e-06
  1.9328594e-05   5.2675142e-07
 -4.0087971e-06   2.7071218e-07
  1.7869032e-05   3.8173758e-07
  5.6941590e-06   1.2735732e-07
  3.4420286e-06   3.1663192e-06
  1.2086857e-05   9.3670883e-07
  2.5233310e-06   3.8037228e-07
 -1.1453941e-05   2.7087108e-07
 -6.9630432e-06   1.0705024e-06
  2.0946195e-06   7.8702539e-07
  6.2056993e-06   1.0657610e-06
  7.0481487e-06   2.0779322e-07
  1.2505192e-05   3.8822895e-06
  3.4156722e-06   1.3762504e-07
 -9.8422352e-06   3.7267358e-07
 -7.9708425e-06   2.0700193e-07
  2.4358968e-07   2.8411733e-07
 -1.4385762e-06   6.9596916e-07
 -3.1098903e-06   4.1256470e-07
  5.4058592e-07   2.9016901e-06
 -9.4506950e-06   1.0907747e-06
 -2.1718903e-05   3.9714423e-06
 -3.5221640e-06   2.4205210e-06
  1.4423397e-05   6.1674098e-07
  1.2708956e-06   2.2831988e-07
 -9.5321566e-06   4.4162405e-07
 -4.3571026e-06   7.8335995e-09
  2.2473763e-05   1.5045848e-06
  6.5615627e-06   2.2410127e-06
 -3.9544757e-06   3.6276117e-07
  2.9790981e-06   2.7942384e-08
 -1.0634069e-06   5.4948432e-06
  4.5117208e-06   1.2393313e-06
 -8.5578931e-06   6.8129367e-08
  7.6685701e-06   4.8008479e-07
  7.8361991e-06   5.8296691e-06
  8.4519315e-06   1.8191841e-06
 -3.3054962e-06   2.9817979e-06
 -4.5303691e-06   1.8724209e-06
  1.0207835e-05   2.6508183e-06
 -1.7717805e-04   1.4751667e-07
 -1.3782629e-06   4.3934222e-07
  1.0225085e-05   2.0397661e-07
  4.2630181e-06   9.5840755e-07
  5.1628086e-07   2.6125252e-07
  2.4321719e-07   2.1893477e-06
 -3.8834228e-06   9.5170878e-07
 -1.0792827e-06   6.5690114e-07
 -2.2329870e-07   1.0883797e-07
 -5.4184879e-06   8.1536155e-07
  4.3768255e-06   9.4938912e-07
  1.4070499e-06   1.0094147e-06
 -1.2399081e-05   2.3270441e-06
  4.6765063e-06   8.2740382e-07
 -7.9471774e-06   5.7402877e-07
 -3.7259113e-07   8.8615559e-07
  2.5783454e-06   3.4736942e-07
  8.1043106e-07   2.7830029e-07
 -9.7936720e-08   4.6028631e-06
  1.5122507e-06   4.8773450e-06
  1.4104067e-05   3.3166630e-06
 -2.3737575e-06   6.3050322e-07
 -1.8165191e-06   8.0808820e-07
 -1.4420872e-05   1.6397290e-06
 -2.7523259e-07   2.6022144e-07
 -1.2773811e-06   4.4799756e-07
  4.2117255e-05   5.5229896e-07
 -1.1008682e-05   9.7141742e-07
  1.1390048e-06   2.8357474e-07
 -3.1586792e-06   1.0265829e-06
  1.4977796e-05   3.0678777e-06
 -1.4473973e-05   3.7180916e-07
 -3.9415554e-06   8.0114717e-07
  9.9862009e-06   8.3025753e-07
  1.5904257e-05   2.3591647e-06
 -9.1959128e-06   1.3757059e-06
  3.4185182e-06   1.2610780e-06
  1.5560677e-06   1.5744222e-06
 -1.0620020e-05   4.0292295e-07
 -1.3539960e-05   8.5078818e-07
 -4.5711677e-06   1.2105786e-06
 -1.0978611e-06   3.2914361e-06
 -3.1508032e-06   1.6201569e-06
 -3.1611496e-06   9.1606438e-08
 -1.0660388e-05   8.6298265e-08
  3.2184935e-06   1.4555161e-06
  5.7710031e-06   1.9255485e-06
 -3.0563572e-06   2.1540211e-06
  2.9032749e-06   8.4479734e-07
 -1.3528487e-05   2.4886917e-06
  4.1621165e-06   9.6128588e-07
  7.2043831e-06   1.6860224e-06
 -1.1826226e-06   9.1041386e-08
 -7.1096424e-06   2.7931665e-07
  3.3917848e-05   2.3426458e-06
  7.4569175e-06   1.3446449e-06
  1.9526673e-05   1.8636748e-06
 -6.3042271e-06   4.0334071e-06
 -7.1696882e-06   1.8361500e-06
 -7.2860130e-06   6.1560803e-07
 -2.2762740e-06   5.0416826e-08
  3.2356641e-06   1.1737961e-07
 -6.1335385e-07   5.7398552e-07
 -3.3200097e-06   7.3831632e-07
  5.9918278e-08   5.6426063e-07
 -1.3543362e-05   1.2169571e-06
  1.0563156e-05   5.0236724e-07
 -7.3715119e-06   1.9529237e-07
 -6.9339267e-06   1.1231126e-06
  6.2197978e-06   2.9720727e-07
 -1.5856078e-05   1.7839270e-07
  7.5414723e-06   3.7509178e-06
  1.4045182e-05   1.2109629e-06
 -9.9951612e-06   1.5301762e-06
 -2.2178368e-05   4.0879559e-07
  2.0042417e-06   3.6511371e-06
  1.7506640e-05   2.0807813e-07
  3.5087069e-05   1.0496363e-05
 -2.9577254e-06   6.4884955e-07
  8.3989262e-06   1.2632790e-07
  5.1605762e-06   9.1751463e-07
  2.3738488e-05   4.9506235e-07
 -1.3813270e-06   1.6927136e-07
  3.8901511e-05   2.1585775e-08
  1.0585526e-05   1.3528880e-07
 -1.3539740e-05   1.3809623e-06
 -3.9537326e-07   3.8145499e-06
  4.2157426e-06   2.1512278e-06
  1.2830991e-05   2.1544049e-06
 -2.9947248e-06   1.0337877e-06
  2.6307143e-05   5.1741858e-07
  2.0623195e-06   8.0190325e-08
 -3.9675592e-06   2.2115369e-06
  4.0457107e-06   4.9172257e-07
  2.9352751e-07   1.2593217e-06
  6.6819222e-04   2.1981675e-06
  1.1044054e-01   3.9608735e-06
  4.6685147e-01   1.1134482e-07
  3.1286810e-02   4.9817407e-07
 -1.0061318e-01   1.7185619e-06
  4.3978560e-01   2.7294921e-06
  1.3191846e-02   5.7350035e-06
 -1.4221021e-05   1.0483024e-06
 -4.7468999e-05   3.4769341e-06
  2.4390577e-06   1.3438946e-06
 -1.9592206e-01   2.3260834e-05
 -5.8002121e-07   3.1455083e-06
 -7.9095475e-03   2.2281779e-07
  8.9554191e-02   9.8634418e-06
 -2.0402531e-01   2.2601225e-05
  1.1108971e-01   1.8067747e-05
  2.8538433e-01   1.3052817e-05
 -1.9746672e-01   1.5454103e-05
 -2.0494483e-06   1.3523885e-07
  1.4212228e-01   2.5066187e-05
  1.5452717e-01   1.3537077e-06
 -8.1252423e-05   8.0115451e-06
  1.8609358e-02   3.2010546e-05
 -8.1541541e-05   9.9528334e-06
 -2.4224292e-01   4.9026289e-06
  6.6166572e-06   1.6518226e-07
 -8.6953978e-06   1.2307294e-07
  6.5404342e-06   1.0681117e-06
 -2.5347872e-05   2.2042179e-06
 -1.0377021e-05   1.9683778e-06
  2.0837709e-03   5.5984142e-08
 -4.1585273e-01   7.1088334e-07
 -3.0204031e-01   3.2505604e-06
 -2.4156566e-01   5.2882237e-06
 -6.8792820e-01   1.1973497e-06
  1.0020765e-02   1.2688872e-05
 -9.7469360e-02   1.0120702e-06
 -1.8291976e-05   2.6022497e-06
 -5.4929446e-06   2.7079834e-06
  1.2088068e-01   2.7324446e-05
 -4.2879861e-02   1.4954027e-06
 -1.6257320e-02   9.7865848e-07
 -2.5257966e-01   6.9392240e-06
  4.1071605e-02   6.4258984e-06
  8.6759001e-02   1.2358000e-05
  1.6239470e-01   3.9872306e-05
  1.8867977e-01   2.1253465e-05
 -1.5131083e-01   1.0363815e-05
 -1.9947218e-05   2.8279774e-06
  9.3829088e-02   1.7894972e-05
  7.6951750e-02   7.0539507e-05
 -7.0718714e-05   3.4798843e-05
  1.3445864e-02   9.0248031e-05
 -3.6550069e-04   4.5575956e-07
 -2.3826776e-01   6.3649808e-05
 -2.2966387e-05   9.1042847e-07
  3.1930005e-05   2.5400877e-07
  3.7025311e-06   2.2104114e-08
 -5.0488602e-06   6.7668151e-07
  1.8288692e-06   1.7053305e-06
  1.7562381e-06   7.1123799e-07
 -6.5055665e-06   1.4584006e-06
 -1.1757651e-05   1.7930479e-06
 -3.2120919e-05   2.4304484e-06
 -9.1872616e-06   1.3899938e-07
 -8.6094406e-06   2.2352260e-07
 -1.8788929e-05   3.2967534e-06
 -6.5658751e-06   2.9739229e-07
 -6.0161951e-06   1.2572474e-06
 -4.1103399e-06   3.9084161e-06
  2.3843133e-05   7.7149355e-07
 -4.8195348e-06   1.4049326e-06
 -1.2422134e-06   6.1704463e-06
  1.8675777e-05   4.4678973e-06
  4.2145166e-06   1.3759524e-08
  3.2109114e-05   3.9459505e-06
 -1.4814682e-06   3.5375456e-07
 -4.0753780e-06   5.9293848e-07
  1.8316106e-05   1.2374188e-06
 -1.2600374e-05   1.1008112e-06
 -3.0860001e-06   6.7281923e-07
 -1.5292477e-05   1.1728221e-07
 -5.5578716e-06   5.6291418e-07
  2.4017268e-08   4.4951969e-07
  3.6121062e-05   4.4962781e-06
  1.1086374e-06   6.7072738e-06
 -8.1306416e-06   1.0381888e-07
  3.8656995e-05   2.1637825e-07
  9.0847916e-06   1.5887213e-07
  3.3877936e-06   2.0672639e-06
 -1.1459932e-06   1.3763237e-07
  1.5418258e-05   8.1355188e-07
  3.1057666e-06   1.1929693e-06
 -9.4730240e-06   9.1172160e-07
  1.2751985e-07   6.6702000e-07
  8.8473671e-06   2.8925856e-06
 -4.8847050e-06   1.5298386e-06
 -4.1478474e-06   9.0250006e-07
 -6.0697075e-06   6.8294537e-07
 -6.2585343e-08   7.2801407e-07
  6.0734442e-06   1.2229190e-06
 -6.7202500e-06   4.4261574e-06
 -1.5189982e-05   3.5934311e-06
 -9.9711478e-06   3.9634892e-07
 -4.1529520e-06   2.6493949e-06
  8.0265327e-06   1.6803891e-06
  9.4269080e-06   2.5253566e-06
  1.5331239e-05   4.1092430e-06
  1.9968295e-05   1.7644064e-06
  1.6155243e-05   1.9328436e-07
  2.0681826e-05   8.5096718e-07
 -9.6916074e-06   1.4263859e-06
 -1.0945893e-05   1.4656180e-07
 -3.2008536e-06   7.5834623e-07
  9.3113467e-06   3.8912567e-06
 -6.0674397e-06   5.5352905e-07
  3.6158843e-05   5.2746419e-08
  5.3435110e-06   6.9232931e-07
  2.4152910e-06   1.0760913e-07
  2.8364834e-06   6.3257983e-07
  2.1927716e-01   6.2680765e-06
  1.5199508e-06   1.2373027e-06
 -4.1874465e-01   9.9687981e-08
  5.3360768e-02   5.4056977e-07
  2.4532984e-01   5.9091462e-07
  1.6349798e-02   1.7450741e-06
 -9.4883936e-04   1.2752598e-07
 -1.8942104e-07   5.5221363e-07
 -8.2305530e-03   1.8414243e-06
  1.0647093e-06   1.2489739e-06
 -3.8279698e-03   5.4220054e-06
 -7.6086968e-02   6.6975449e-06
 -1.2342243e-01   3.8119192e-06
  1.5162402e-01   3.9375824e-05
 -8.0250226e-02   4.0657937e-07
  1.5004314e-01   7.2593315e-07
  3.7866202e-01   3.6577972e-06
 -2.8524870e-01   4.8881275e-06
 -9.7835573e-06   1.4076065e-06
  1.3329770e-01   6.0710481e-06
  2.0242581e-01   2.3490527e-05
 -6.6142678e-02   2.4313735e-07
  9.1918342e-02   5.9665931e-06
 -1.0944645e-01   8.2404775e-05
 -5.0026506e-01   4.7800091e-05
 -5.6453515e-04   1.0372111e-06
 -1.8137021e-05   1.2948752e-07
 -5.7164220e-06   2.0846642e-06
 -7.2399508e-03   3.5370314e-05
  1.6074739e-03   2.9977587e-06
  2.3351573e-05   1.1638950e-06
 -7.4881364e-06   1.2768701e-06
 -1.0141675e-06   4.8599821e-07
  2.2059967e-06   1.4617759e-06
  9.7809252e-06   5.8421472e-07
  2.4883414e-06   7.2196326e-07
 -1.5866037e-05   2.1551584e-06
 -3.9986503e-06   6.3377536e-07
  8.1292128e-06   2.6895376e-07
  1.6130847e-06   2.2328061e-06
  2.3426526e-06   4.7838139e-06
  1.5217001e-05   3.5752126e-07
  5.3295767e-06   2.1921157e-06
 -5.7899324e-06   3.1812747e-06
  3.0744059e-06   8.4861210e-07
 -3.3642341e-06   3.1118852e-06
  2.6535763e-06   2.6274989e-07
  9.8937526e-06   1.2864283e-06
 -1.6344809e-07   5.7704224e-08
 -1.2556443e-05   5.2799845e-07
 -2.3087990e-05   4.6846399e-06
 -1.6441882e-06   4.2197757e-07
  2.3792507e-05   1.1193729e-06
  1.4111675e-05   1.2365318e-06
  2.7070864e-05   4.7822350e-06
  1.0019452e-05   2.7611952e-07
  3.5197627e-05   1.7779726e-06
  5.7026400e-06   6.7540810e-07
 -1.9525457e-06   2.0363757e-06
 -4.5876892e-05   2.9223571e-08
  4.6738031e-05   4.6667336e-07
  1.7224020e-05   1.0569697e-06
 -1.6573933e-05   1.8605816e-07
  9.3205717e-06   2.7734641e-06
  4.5980573e-06   1.3929465e-06
 -6.8270033e-06   1.3905048e-06
 -6.3568432e-06   3.1266950e-07
  1.0658697e-06   6.5057611e-07
  1.0489634e-05   4.1039817e-07
  1.4061571e-05   1.9174279e-06
 -6.8009622e-06   1.8626638e-06
 -3.6194542e-06   1.7557105e-07
 -4.0852983e-06   1.9062584e-06
 -6.1132073e-07   1.4308565e-06
 -1.7327262e-05   2.1970839e-06
  1.2845405e-05   4.4584473e-07
 -1.0283638e-05   1.4727640e-06
 -2.4346775e-07   1.2081366e-06
 -9.3742528e-06   2.0655435e-07
 -2.2940651e-06   4.0900915e-07
  7.1528922e-07   2.9759394e-07
  2.3328107e-06   3.9190672e-07
 -1.9767913e-06   5.8040575e-07
 -1.7749340e-05   2.6420896e-06
  2.3413189e-05   4.0595762e-07
 -1.7947528e-05   2.4840699e-07
  6.6557041e-06   2.2796601e-06
  9.4327797e-06   1.0879784e-06
 -9.5727707e-08   5.9635551e-07
  6.5765585e-06   2.1315122e-06
 -1.2881594e-05   3.9691781e-07
 -5.5699788e-06   3.9330230e-06
  2.6195048e-06   2.5942124e-06
  2.6539110e-06   8.9643191e-07
  1.2352232e-05   1.4048720e-06
 -1.1282348e-05   8.8109499e-07
 -5.9754802e-06   1.2598470e-06
  5.2554110e-06   1.3381663e-06
  7.0820588e-06   1.4318736e-06
 -2.6091584e-06   6.5017394e-07
 -1.1804121e-05   5.0025997e-06
 -1.3538880e-05   4.7352330e-07
  2.4087634e-05   8.6992753e-07
 -3.2566472e-06   1.6893247e-06
 -1.6462518e-06   1.7538280e-06
  7.1482723e-06   2.1059275e-06
 -1.9803304e-07   1.3610668e-06
 -7.6425304e-06   2.9508847e-06
 -1.1171192e-05   1.2687856e-07
 -7.4171585e-06   3.4058064e-06
 -1.4213052e-05   2.4929391e-06
 -5.4567181e-06   1.0928669e-06
  1.0211923e-05   7.9264669e-07
  1.4148217e-05   1.8270218e-06
  4.7799113e-06   1.0489063e-06
  1.8791050e-05   2.0718578e-06
 -2.5095538e-05   1.2172195e-06
  2.1646449e-06   1.8666573e-06
 -3.4711286e-06   5.8319199e-07
 -2.6529360e-06   2.9793873e-07
  4.8617017e-06   4.5160124e-07
  8.1511498e-06   3.3473131e-07
  9.1589663e-06   2.5531554e-06
 -2.1043356e-01   1.1857904e-05
  1.7583117e-05   5.0103754e-06
 -1.0371076e-05   2.7621791e-06
 -2.5158408e-06   4.1355179e-07
 -1.3268319e-05   1.4505048e-06
  1.5222206e-05   1.4187369e-06
 -1.5162471e-01   1.5198181e-06
 -1.8509635e-06   8.6106058e-07
  1.4881099e-05   4.8128623e-08
  1.0078440e-01   4.8812291e-07
 -1.6340606e-05   2.6679154e-06
 -2.2147574e-06   7.0141022e-07
  3.7396685e-06   1.0272547e-06
  1.2675269e-05   4.9456762e-06
  5.9088857e-06   4.0582637e-07
 -9.0079129e-06   1.9920269e-07
 -2.9311967e-05   5.3967386e-07
 -1.0504647e-05   6.2906759e-07
  4.0004334e-06   3.5633852e-06
  6.4980554e-06   2.0252394e-06
  1.2261417e-05   1.6985518e-06
 -1.0535080e-05   2.1291545e-07
 -1.2226688e-05   1.6246585e-06
 -2.6297148e-05   2.1763747e-06
 -5.2211368e-07   1.6335208e-06
 -1.0095790e-05   3.3135939e-07
 -1.0413137e-05   3.9656902e-06
  1.0479155e-05   5.0807586e-07
 -6.3341936e-06   6.5962689e-07
 -4.9119953e-05   2.8307196e-07
  1.6176783e+00   1.8369165e-05
  5.3067151e-06   2.5130184e-06
  6.5325338e-08   5.8594878e-07
  2.7388334e-05   1.2454500e-06