64
Config_type=100_0 Weight=1.0 Lattice="10.909109850 0.000000000 0.000000000 0.000000000 10.909227470 0.000000000 0.000000000 0.000000000 10.909342390" Energy=-346.6209865800 Virial="6.32525 -0.11029 0.61749 -0.11029 6.18295 1.87532 0.61749 1.87532 6.30542" pbc="T T T" Properties=species:S:1:pos:R:3:forces:R:3
Si	      0.02325     10.89304     10.90734        -0.473567     -0.218130     -0.171776
Si	     10.89334      2.73485      2.69778        -0.078566     -0.184918      0.114856
Si	      2.71831     10.89492      2.71624        -0.014488      0.388271     -0.096629
Si	      2.71188      2.70743     10.90752        -0.010694     -0.044529      0.193852
Si	      1.31464      1.36325      1.34870         0.593994     -0.114950      0.194326
Si	      1.29322      4.05755      4.09338         0.991113      0.213138     -0.517464
Si	      4.08058      1.40428      4.07130         0.078170     -0.446339      0.097695
Si	      4.08500      4.07601      1.35282         0.014613      0.154392      0.111331
Si	     10.90329     10.88787      5.51682         0.052702      0.041017     -0.276958
Si	     10.90410      2.72246      8.18647         0.069862     -0.270424     -0.041829
Si	      2.75239     10.88653      8.16002        -0.294057     -0.013388      0.190562
Si	      2.73487      2.75685      5.43438        -0.149281      0.044862      0.285872
Si	      1.40056      1.36633      6.81834        -0.159555      0.062542      0.058206
Si	      1.36518      4.06209      9.55383         0.262412      0.244736     -0.381808
Si	      4.05915      1.31960      9.57328         0.167091      0.518876     -0.404414
Si	      4.07355      4.14371      6.84205         0.227106     -0.475553     -0.150403
Si	      0.00163      5.44180     10.83900         0.253092      0.245176      0.521964
Si	     10.88143      8.16688      2.71464         0.459897      0.441817      0.271616
Si	      2.72590      5.48149      2.72430        -0.304093     -0.546072      0.164689
Si	      2.74680      8.16819      0.02539        -0.381074      0.000846     -0.404116
Si	      1.33854      6.82351      1.37416         0.066522     -0.196189     -0.407554
Si	      1.36359      9.55644      4.09084        -0.192788     -0.239643      0.112550
Si	      4.08183      6.81247      4.10928         0.278765      0.303697     -0.298059
Si	      4.09006      9.54987      1.33134         0.209042      0.265263      0.329047
Si	     10.90041      5.40030      5.42033        -0.240573      0.843895      0.164184
Si	      0.03703      8.12798      8.15860        -0.136119     -0.171801     -0.021634
Si	      2.75546      5.49433      8.21680        -0.544096     -0.487863     -0.088428
Si	      2.75481      8.19449      5.45521        -0.346244     -0.064798     -0.038031
Si	      1.39667      6.77635      6.79209        -0.126053      0.045298     -0.190530
Si	      1.36125      9.49963      9.50008         0.307800      0.238769      0.460776
Si	      4.10114      6.82952      9.53131         0.040199      0.157540      0.450472
Si	      4.11155      9.55329      6.80736         0.002737      0.005265     -0.189340
Si	      5.46025      0.06022      0.01088         0.132613     -0.744047     -0.100018
Si	      5.47583      2.74887      2.75404        -0.166314      0.195371     -0.159097
Si	      8.15143      0.02887      2.74837         0.429994      0.180785      0.074354
Si	      8.18779      2.78338      0.03765        -0.283511     -0.295772     -0.178311
Si	      6.79877      1.38409      1.38263         0.330995      0.280025     -0.038191
Si	      6.82913      4.12915      4.10820         0.033903     -0.015730     -0.041331
Si	      9.58124      1.38774      4.11728        -0.354060     -0.335211     -0.095654
Si	      9.59113      4.12121      1.34165        -0.554266      0.359407      0.345563
Si	      5.46216     10.90548      5.42974        -0.222583      0.199635     -0.076215
Si	      5.44050      2.71531      8.18953        -0.073536     -0.141039     -0.030282
Si	      8.19010     10.83894      8.20833         0.077076      0.744968      0.048600
Si	      8.16229      2.71242      5.45773        -0.082956     -0.152619     -0.059416
Si	      6.82194      1.30248      6.83078         0.039145      0.316537      0.087705
Si	      6.81370      4.10976      9.53293         0.149050     -0.217866     -0.004978
Si	      9.51954      1.38121      9.58880         0.106036     -0.283583     -0.234018
Si	      9.56074      4.04301      6.76890         0.034241     -0.014998      0.210939
Si	      5.44532      5.45545     10.89268         0.014818      0.098662      0.119928
Si	      5.46163      8.21585      2.72936        -0.525448     -0.145282      0.131273
Si	      8.16781      5.52298      2.72225         0.091616     -0.361236     -0.224185
Si	      8.22116      8.19355      0.00155        -0.196110     -0.275303     -0.085992
Si	      6.76261      6.86930      1.36201         0.539835     -0.303672     -0.330459
Si	      6.82259      9.55719      4.07101         0.106022     -0.171070      0.454011
Si	      9.53616      6.87225      4.07586        -0.043745     -0.531887      0.545438
Si	      9.53299      9.56375      1.42915         0.064360      0.138523     -0.667257
Si	      5.44877      5.48003      5.47252         0.178709     -0.076520      0.063605
Si	      5.42761      8.20599      8.18485         0.521011     -0.289693     -0.071701
Si	      8.22258      5.39278      8.12296        -0.254389      0.093308      0.333259
Si	      8.17885      8.18914      5.50141        -0.128940      0.012107     -0.459136
Si	      6.85200      6.79978      6.85498        -0.462030      0.227193     -0.136783
Si	      6.81906      9.53493      9.54239        -0.230219      0.048267      0.500864
Si	      9.55227      6.76792      9.47930        -0.178802      0.404542      0.356789
Si	      9.54124      9.48742      6.87822         0.283616      0.315400     -0.322328
64
Config_type=100_5 Weight=1.0 Lattice="10.943204960 0.000000000 0.000000000 0.000000000 10.944197970 0.000000000 0.000000000 0.000000000 10.944154510" Energy=-346.3765648100 Virial="-0.66054 0.51428 0.08328 0.51428 -0.84111 -1.30198 0.08328 -1.30198 -0.60157" pbc="T T T" Properties=species:S:1:pos:R:3:forces:R:3
Si	     10.92707      0.01976      0.06297         0.425618     -0.431371     -0.570269
Si	      0.00553      2.75927      2.73936         0.555413      0.316379     -0.088733
Si	      2.76987     10.91147      2.72784        -0.590624      0.196029     -0.130877
Si	      2.79504      2.77372      0.03273        -0.718434     -0.343172     -0.261778
Si	      1.34188      1.36510      1.35726         0.768625      0.310017      0.450917
Si	      1.41736      4.12846      4.14778        -0.589970     -0.041470     -0.463862
Si	      4.12609      1.31394      4.09718        -0.375389      0.430788      0.361245
Si	      4.11678      4.08196      1.44193        -0.276033      0.482290     -0.190582
Si	     10.92177      0.04588      5.41760        -0.423628     -0.140341      0.335102
Si	     10.93501      2.68353      8.26000         0.288453      0.495186     -0.091520
Si	      2.67991      0.02837      8.19695         0.198990      0.111458     -0.066277
Si	      2.72089      2.74132      5.47677         0.512022     -0.377911      0.061551
Si	      1.29504      1.40602      6.81814         0.458734     -0.409222     -0.017010
Si	      1.38012      4.09845      9.55765         0.117218      0.093461      0.281738
Si	      4.08715      1.39406      9.53574         0.033503     -0.061076      0.116822
Si	      4.15796      4.08472      6.82449        -0.464055     -0.059433     -0.002016
Si	     10.88195      5.46019     10.90258         0.572243      0.111496      0.228995
Si	      0.01013      8.17591      2.72837        -0.153415      0.065901      0.339948
Si	      2.76153      5.50318      2.78280        -0.204044     -0.293386     -0.396928
Si	      2.75465      8.19074      0.02495        -0.086342     -0.228351     -0.296185
Si	      1.38919      6.82051      1.38025        -0.368194     -0.278568     -0.340694
Si	      1.33570      9.60479      4.11210         0.466465     -0.399285     -0.119315
Si	      4.13507      6.86882      4.04076         0.243165      0.311897      0.978637
Si	      4.09782      9.57216      1.32833         0.091023     -0.086448      0.294948
Si	     10.83762      5.39370      5.43222         1.121250      0.415143      0.607976
Si	      0.04199      8.19449      8.20043         0.293807      0.349587      0.210640
Si	      2.77200      5.45031      8.18341        -0.257033      0.127650     -0.134693
Si	      2.75262      8.22676      5.49855        -0.118202     -0.112054     -0.574404
Si	      1.37819      6.82742      6.80374        -0.309413     -0.485138     -0.087936
Si	      1.41545      9.59938      9.63302        -0.620357     -0.157301     -0.241538
Si	      4.11185      6.84504      9.54852         0.049390     -0.045621      0.189738
Si	      4.09636      9.59441      6.86162        -0.116587      0.058004      0.069043
Si	      5.42012     10.89409     10.88128         0.202533      0.488821     -0.047716
Si	      5.44988      2.70793      2.73613         0.169283     -0.144166      0.288693
Si	      8.23128      0.09500      2.74031        -0.089571     -0.168695     -0.158182
Si	      8.18459      2.67650      0.00831        -0.174596     -0.115506     -0.052441
Si	      6.75407      1.33659      1.35425         0.360059     -0.151784     -0.241924
Si	      6.82355      4.08493      4.06165         0.150891      0.148241      0.146087
Si	      9.56475      1.48652      4.09464        -0.002954     -0.678129      0.156100
Si	      9.55851      4.03026      1.32032         0.198573      0.386855      0.072629
Si	      5.47285      0.00542      5.52046         0.264942     -0.072719     -0.172452
Si	      5.50338      2.73978      8.19032        -0.103068     -0.053461      0.390599
Si	      8.27498      0.00590      8.23054        -0.146119     -0.329747     -0.006086
Si	      8.14247      2.71142      5.46516         0.329582      0.476196      0.501560
Si	      6.86266      1.34383      6.90917         0.000021     -0.063410     -0.497544
Si	      6.83743      4.06620      9.61899         0.105604      0.483937     -0.327697
Si	      9.61599      1.35638      9.61993        -0.496571     -0.152140      0.040350
Si	      9.60712      4.04686      6.89033        -0.878638      0.003078     -0.278018
Si	      5.42830      5.43944      0.02364         0.267051      0.278437     -0.191451
Si	      5.50403      8.29408      2.72718        -0.075081     -0.419159     -0.159038
Si	      8.20294      5.42062      2.64383        -0.288594      0.160538      0.261356
Si	      8.20170      8.30633      0.07252         0.063916     -0.723614     -0.584162
Si	      6.81161      6.86286      1.34909         0.127695     -0.072273      0.067700
Si	      6.86590      9.65639      4.06594         0.068293     -0.228672      0.633165
Si	      9.54476      6.74359      4.06789        -0.277593      0.762368     -0.149489
Si	      9.59233      9.61941      1.40542        -0.141154     -0.110917      0.426965
Si	      5.48628      5.44091      5.47540        -0.003366      0.608129     -0.457301
Si	      5.49750      8.24866      8.19943        -0.320046     -0.383762      0.123110
Si	      8.20262      5.47430      8.19389         0.193341     -0.021176      0.597473
Si	      8.18019      8.19257      5.45575         0.190611     -0.021737     -0.194610
Si	      6.82506      6.84619      6.86951         0.036331     -0.160903     -0.501694
Si	      6.85463      9.56852      9.55760         0.218460      0.368728      0.159058
Si	      9.58086      6.91860      9.57910        -0.534302     -0.279110      0.061877
Si	      9.59381      9.54200      6.84062         0.060270      0.260616     -0.359597
64
Config_type=100_2 Weight=1.0 Lattice="10.937498690 0.000000000 0.000000000 0.000000000 10.938089970 0.000000000 0.000000000 0.000000000 10.938178770" Energy=-346.2633078200 Virial="-0.02456 0.96814 -0.42470 0.96814 0.39200 -2.51495 -0.42470 -2.51495 0.07984" pbc="T T T" Properties=species:S:1:pos:R:3:forces:R:3
Si	      0.05440      0.01799     10.90415        -0.308572      0.005681     -0.186516
Si	     10.87735      2.65741      2.77255         0.019267      0.423943      0.065984
Si	      2.60831      0.09038      2.81655         1.056107     -0.212597     -0.214275
Si	      2.70565      2.73431      0.00657         0.672085      0.067571      0.117420
Si	      1.34322      1.41658      1.35820        -0.186206     -0.231161      0.143235
Si	      1.33040      4.09304      4.07097        -0.158972     -0.087558      0.062742
Si	      4.13422      1.41868      4.13111        -0.203652     -0.286295     -0.164407
Si	      4.13669      4.18068      1.29971        -0.417107     -0.437019      0.108121
Si	     10.93635      0.01498      5.50679         0.490419     -0.074242     -0.281428
Si	      0.03397      2.72069      8.15928        -0.230149     -0.038420      0.021557
Si	      2.74856     10.91856      8.20705        -0.109788     -0.379826      0.047953
Si	      2.72746      2.76449      5.44113         0.109299      0.104658     -0.130733
Si	      1.47617      1.37430      6.83168        -0.830685     -0.060429     -0.047115
Si	      1.39492      4.05823      9.54651        -0.640121      0.267320      0.366185
Si	      4.06737      1.26579      9.65644        -0.096948      0.517540     -0.252275
Si	      4.08920      4.06140      6.81700         0.432565      0.281191      0.308699
Si	      0.03775      5.46345      0.05054        -0.341702     -0.467345     -0.678616
Si	      0.00945      8.19605      2.74687        -0.108590     -0.128878     -0.146328
Si	      2.67975      5.45931      2.69677         0.702370      0.236914      0.233215
Si	      2.72691      8.22902      0.02752         0.237214      0.466418      0.265526
Si	      1.34852      6.85587      1.33232         0.264128      0.148449      0.541184
Si	      1.36942      9.51746      4.10817        -0.492933      0.670523      0.157215
Si	      4.19125      6.79794      4.10473        -0.911481     -0.408487     -0.212728
Si	      4.09594      9.66525      1.47891        -0.723505     -0.200325     -0.567569
Si	     10.92658      5.48535      5.46849        -0.182460     -0.310466     -0.148184
Si	     10.90385      8.17142      8.16555         0.307383     -0.224636      0.161485
Si	      2.76264      5.39846      8.24423        -0.131639      0.822623     -0.652785
Si	      2.78178      8.19689      5.37688         0.000988     -0.400414      0.651603
Si	      1.38467      6.82017      6.79347         0.381786      0.009906      0.399974
Si	      1.34629      9.51647      9.53935         0.151661      0.231560     -0.075505
Si	      4.05296      6.87080      9.59238         0.133131     -0.093826     -0.360339
Si	      4.07618      9.59970      6.76902         0.233374     -0.191307      0.367640
Si	      5.49106     10.93222      0.03546         0.266803     -0.026733      0.455291
Si	      5.45258      2.79391      2.72232         0.112800     -0.308139     -0.258671
Si	      8.25202     10.89602      2.62079        -0.450575     -0.276356      0.894769
Si	      8.19736      2.76349      0.05885         0.376806      0.257160     -0.441542
Si	      6.88663      1.39013      1.38758        -0.726388      0.001689     -0.012967
Si	      6.84256      4.10784      4.07551        -0.051604      0.202024      0.373237
Si	      9.48681      1.29512      4.11895         0.336121      0.182840      0.095717
Si	      9.57933      4.12401      1.44541         0.075046     -0.158770     -0.373641
Si	      5.51690      0.00714      5.48811        -0.228951      0.093294     -0.479722
Si	      5.38307      2.63063      8.23924         0.487282      0.332424     -0.241928
Si	      8.21577      0.02879      8.23738         0.028729      0.038638     -0.150468
Si	      8.17014      2.74830      5.48005        -0.055868     -0.339299     -0.506728
Si	      6.86453      1.36467      6.84071        -0.367676      0.035562      0.390246
Si	      6.84284      4.05452      9.52998        -0.264750     -0.426470     -0.010535
Si	      9.55952      1.41133      9.56638         0.334977      0.002215      0.326750
Si	      9.53178      4.06124      6.80958         0.704163      0.445076      0.196490
Si	      5.48483      5.46525     10.79254        -0.002751      0.222797      0.618609
Si	      5.40051      8.15949      2.68150         0.755602      0.343726      0.264938
Si	      8.21366      5.49170      2.75943        -0.345482      0.457864     -0.225647
Si	      8.22166      8.16861     10.91445         0.058322      0.362730      0.135209
Si	      6.78934      6.83189      1.29092         0.354445     -0.256104      0.351367
Si	      6.80541      9.55454      4.06794         0.169593      0.032259     -0.450925
Si	      9.55698      6.88496      4.13577        -0.171927     -0.035518      0.061872
Si	      9.66007      9.55275      1.32337        -0.286551     -0.137847     -0.237378
Si	      5.53638      5.48315      5.51906        -0.156014     -0.348884     -0.027844
Si	      5.41129      8.26634      8.23972         0.329376     -0.172008     -0.315110
Si	      8.21737      5.41863      8.22850        -0.081622      0.208239     -0.378051
Si	      8.16633      8.26830      5.50999         0.425560     -0.036875     -0.044028
Si	      6.85897      6.86726      6.89686        -0.177439      0.074767      0.239287
Si	      6.86823      9.60758      9.59084        -0.297936     -0.376366     -0.024790
Si	      9.57125      6.78973      9.57072         0.282550     -0.080037      0.078780
Si	      9.60656      9.63013      6.88473        -0.549907     -0.334965     -0.203523
64
Config_type=100_6 Weight=1.0 Lattice="10.943813050 0.000000000 0.000000000 0.000000000 10.944777480 0.000000000 0.000000000 0.000000000 10.944695670" Energy=-346.3995040000 Virial="-0.87450 -0.81088 1.04145 -0.81088 -0.79976 1.85620 1.04145 1.85620 -0.42739" pbc="T T T" Properties=species:S:1:pos:R:3:forces:R:3
Si	      0.01708     10.92360     10.94343         0.054987     -0.301979     -0.131916
Si	     10.92835      2.76016      2.67314         0.271004     -0.295021      0.214415
Si	      2.75340      0.04448      2.79415        -0.409760     -0.082475     -0.382489
Si	      2.76533      2.72314     10.92385        -0.397647      0.083144      0.092170
Si	      1.37967      1.35318      1.34744         0.058489      0.145164      0.222790
Si	      1.38891      4.05392      4.08465         0.005569      0.457971     -0.595101
Si	      4.06076      1.36790      4.19564         0.588062      0.259025     -0.425734
Si	      4.10515      4.12502      1.31485         0.284330      0.119338      0.184658
Si	      0.02709     10.94437      5.42095        -0.586412      0.714357      0.181608
Si	     10.93219      2.70754      8.21598        -0.161618     -0.022930      0.382651
Si	      2.74597     10.92992      8.23749        -0.342979     -0.277144     -0.266250
Si	      2.69001      2.72359      5.50181         0.336885      0.343802      0.130448
Si	      1.36171      1.37847      6.85732        -0.051987     -0.595080      0.112273
Si	      1.34784      4.08821      9.58673         0.548564     -0.086616     -0.388177
Si	      4.09388      1.35054      9.56497         0.274666      0.150658     -0.030747
Si	      4.13990      4.09464      6.80644         0.207726      0.036719     -0.136058
Si	      0.07402      5.47631      0.01196        -0.799805      0.183352      0.171496
Si	     10.93876      8.18272      2.73139        -0.324461      0.296167      0.222972
Si	      2.76832      5.52526      2.69587        -0.099072     -0.526953      0.486791
Si	      2.77915      8.21589      0.07170         0.000966      0.043660     -0.546061
Si	      1.38923      6.89257      1.40187        -0.077034     -0.448917     -0.275334
Si	      1.34427      9.59308      4.06856         0.402698     -0.427481      0.102519
Si	      4.11309      6.93007      4.05604         0.037331     -0.702121      0.467183
Si	      4.09200      9.69061      1.36554         0.558402     -0.375847      0.070764
Si	     10.90066      5.37241      5.39872         0.462679      0.337175      0.395754
Si	     10.89612      8.17309      8.15499         0.526235     -0.301161      0.241431
Si	      2.78522      5.42593      8.18912        -0.536774     -0.029748      0.146767
Si	      2.73483      8.20513      5.45877        -0.461523      0.001373      0.146712
Si	      1.35742      6.72502      6.78977        -0.055333      0.541554      0.071165
Si	      1.38627      9.48710      9.57968        -0.275925      0.321268     -0.170890
Si	      4.09324      6.81039      9.57811         0.073799      0.450184      0.062679
Si	      4.10192      9.56094      6.84533         0.046616      0.042149      0.101202
Si	      5.53034      0.07652     10.92686        -0.773186     -0.620075     -0.127837
Si	      5.44079      2.73393      2.73582        -0.457527      0.137434      0.371507
Si	      8.19925      0.06031      2.74507         0.132344     -0.299857     -0.364745
Si	      8.13500      2.72548      0.04282         0.365101     -0.064302     -0.286216
Si	      6.77495      1.37843      1.38358         0.546565      0.152649      0.423187
Si	      6.83435      4.06679      4.12568        -0.219675      0.354725     -0.414123
Si	      9.52126      1.46785      4.07116         0.673603     -0.596592      0.303531
Si	      9.54589      4.07298      1.34062         0.226749      0.781799     -0.025173
Si	      5.47998      0.01074      5.51054        -0.145959     -0.262507     -0.117576
Si	      5.47677      2.67586      8.18483         0.007655      0.435379      0.106141
Si	      8.26065     10.93537      8.22598        -0.255678     -0.075745      0.047487
Si	      8.16094      2.74082      5.48628         0.428865     -0.003808      0.390096
Si	      6.87562      1.32186      6.85667        -0.060398      0.140134      0.097538
Si	      6.83596      4.08006      9.58536        -0.144852     -0.080799     -0.392640
Si	      9.54022      1.35266      9.63389         0.309416      0.274053     -0.117238
Si	      9.60382      4.07432      6.85144        -0.558254     -0.011460     -0.024945
Si	      5.52225      5.51050     10.90447        -0.608798     -0.628873      0.076980
Si	      5.46121      8.26076      2.74300         0.158859      0.314573     -0.588724
Si	      8.19342      5.45349      2.75765         0.112438     -0.006885     -0.154284
Si	      8.10937      8.23517      0.01356         1.041200     -0.675709      0.489509
Si	      6.78787      6.80652      1.38445         0.385558      0.578906      0.362469
Si	      6.83798      9.63927      4.08497         0.091078     -0.343427      0.261609
Si	      9.57450      6.83100      4.13317        -0.131226      0.048387     -0.372644
Si	      9.57252      9.57043      1.36883        -0.302379      0.102891      0.086024
Si	      5.52360      5.52083      5.43079        -0.482105     -0.011359      0.147378
Si	      5.47279      8.21543      8.24259         0.239358     -0.123374     -0.194049
Si	      8.21519      5.44086      8.23344         0.254006     -0.025245     -0.119797
Si	      8.23643      8.25422      5.46792        -0.265364     -0.025069     -0.058178
Si	      6.91049      6.83941      6.84135        -0.425823      0.251961      0.187105
Si	      6.87285      9.60243      9.61810        -0.564824      0.147087     -0.763024
Si	      9.55324      6.82996      9.60942         0.047170      0.184337      0.034651
Si	      9.59453      9.61346      6.82369         0.217405     -0.102817     -0.123712
64
Config_type=100_8 Weight=1.0 Lattice="10.943898160 0.000000000 0.000000000 0.000000000 10.945036220 0.000000000 0.000000000 0.000000000 10.944972660" Energy=-346.3826931300 Virial="-0.71212 -0.29710 0.94780 -0.29710 -0.93242 0.66462 0.94780 0.66462 -0.93526" pbc="T T T" Properties=species:S:1:pos:R:3:forces:R:3
Si	     10.92273      0.04273      0.03702         0.002962     -0.498321     -0.073604
Si	      0.00067      2.73630      2.72438        -0.523751     -0.382658     -0.053304
Si	      2.73985      0.03269      2.70809         0.455297     -0.236592      0.234232
Si	      2.70902      2.67081     10.92267         0.611152      0.352454      0.111300
Si	      1.38507      1.36152      1.39729        -0.404151      0.232162     -0.368973
Si	      1.36363      4.03638      4.05943         0.570062      0.516041      0.501543
Si	      4.09143      1.42156      4.09049        -0.082446     -0.451414     -0.138132
Si	      4.15090      4.09038      1.34467        -0.589222     -0.130745     -0.354271
Si	     10.93501     10.88894      5.53333         0.377687      0.215508     -0.077050
Si	     10.94119      2.79973      8.24278         0.128570     -0.574489     -0.147931
Si	      2.76947     10.90205      8.16639        -0.331456      0.309116      0.646308
Si	      2.79472      2.72173      5.49954        -1.047808      0.170552     -0.031888
Si	      1.35881      1.36035      6.88392         0.199458      0.196095     -0.158619
Si	      1.34743      4.11623      9.63822         0.469166      0.269886     -0.358136
Si	      4.15792      1.30437      9.60138        -0.496017      0.319283     -0.384072
Si	      4.06108      4.15368      6.85213         0.119448     -0.614039      0.471867
Si	      0.00383      5.44115      0.09998         0.000682      0.529541     -0.296671
Si	     10.93674      8.26414      2.68038         0.283063     -0.091997      0.302446
Si	      2.76515      5.42857      2.71078        -0.152166      0.128489      0.318188
Si	      2.77281      8.21261     10.89377        -0.351308      0.205122      0.191024
Si	      1.41283      6.87876      1.40755        -0.002081     -0.203012     -0.442080
Si	      1.38974      9.62544      4.06332        -0.297484     -0.262174      0.309639
Si	      4.08496      6.78569      4.17082        -0.066997      0.149509     -0.630758
Si	      4.13836      9.56317      1.37141        -0.270663     -0.119167      0.115931
Si	      0.03262      5.47966      5.41787        -0.227688      0.010282      0.035453
Si	     10.90893      8.21082      8.29379        -0.026839     -0.462200     -0.636585
Si	      2.74040      5.53814      8.19668        -0.495444     -0.316553      0.471349
Si	      2.75620      8.25155      5.44096        -0.469093     -0.318668      0.261476
Si	      1.33353      6.87933      6.85172         0.156223      0.208410     -0.291052
Si	      1.31870      9.58937      9.55316         0.609611      0.344371      0.592269
Si	      4.15525      6.86693      9.53729        -0.133847     -0.064047      0.120534
Si	      4.11576      9.55860      6.84464         0.257099      0.153253     -0.552841
Si	      5.50302      0.00361      0.05563         0.178047     -0.099742     -0.146854
Si	      5.45186      2.75726      2.76281         0.232807      0.097408     -0.211657
Si	      8.15409     10.91377      2.75612         0.425042      0.433655     -0.153349
Si	      8.20946      2.79964     10.92536        -0.470122     -0.319150     -0.063906
Si	      6.82671      1.42669      1.39304         0.421645     -0.160029     -0.059528
Si	      6.77482      4.12017      4.14480         0.540040     -0.174045      0.004679
Si	      9.63085      1.31099      4.13646        -0.485139      0.147106     -0.420767
Si	      9.50326      4.12586      1.39665         0.345653     -0.131895      0.336000
Si	      5.42858      0.04381      5.42080         0.290196     -0.548820      0.358815
Si	      5.46382      2.75568      8.20869        -0.056315     -0.409690     -0.281547
Si	      8.20727     10.92285      8.21663         0.070683      0.566936      0.088993
Si	      8.24412      2.73770      5.45024        -0.465515     -0.474110     -0.214834
Si	      6.84851      1.33513      6.80669        -0.066081      0.480567      0.176181
Si	      6.82814      4.14473      9.50922        -0.004688     -0.130235      0.637966
Si	      9.58234      1.39806      9.60215        -0.169625     -0.015365     -0.271494
Si	      9.60759      4.05163      6.77666         0.055330      0.777563      0.254149
Si	      5.47472      5.49962     10.94324         0.390898     -0.000098     -0.003545
Si	      5.46319      8.14577      2.76246        -0.257803      0.281565      0.253543
Si	      8.14385      5.49666      2.77286         0.391575     -0.390715      0.276012
Si	      8.20147      8.14146     10.89795        -0.054860      0.212057      0.127685
Si	      6.86561      6.84851      1.43667        -0.463719      0.004030     -1.026375
Si	      6.81361      9.55715      4.10227        -0.244310      0.144670      0.158004
Si	      9.58289      6.88315      4.03022         0.162382     -0.185859      0.545248
Si	      9.50897      9.54846      1.35304         0.117290      0.400353     -0.364513
Si	      5.42712      5.44433      5.52508         0.319917      0.283475     -0.233531
Si	      5.51818      8.19901      8.15595         0.043449      0.244101      0.253347
Si	      8.22263      5.43430      8.16318        -0.002531      0.150237     -0.600183
Si	      8.24777      8.25767      5.45012        -0.301276     -0.502229     -0.061053
Si	      6.84165      6.83700      6.76975         0.554884      0.004051      0.292827
Si	      6.84291      9.59831      9.57097        -0.074162     -0.431666      0.203001
Si	      9.57492      6.74566      9.55240         0.141799      0.115748      0.555058
Si	      9.55994      9.54314      6.90010         0.162492      0.046129     -0.095963
64