
***************************************************************
*                 Welcome to use GPUMD                        *
*    (Graphics Processing Units Molecular Dynamics)           *
*                     Version 3.8                             *
*              This is the nep executable                     *
***************************************************************


---------------------------------------------------------------
GPU information:
---------------------------------------------------------------

number of GPUs = 2
Device id:                   0
    Device name:             NVIDIA GeForce RTX 3090
    Compute capability:      8.6
    Amount of global memory: 23.6911 GB
    Number of SMs:           82
Device id:                   1
    Device name:             NVIDIA GeForce RTX 3090
    Compute capability:      8.6
    Amount of global memory: 23.6911 GB
    Number of SMs:           82
GPU-0 cannot access GPU-1.
GPU-1 cannot access GPU-0.

---------------------------------------------------------------
Started running nep.
---------------------------------------------------------------


---------------------------------------------------------------
Started reading nep.in.
---------------------------------------------------------------

Input or default parameters:
    (default) model_type = potential.
    (default) calculation mode = train.
    (default) use NEP version 4.
    (input)   number of atom types = 1.
        (default) type 0 (Si with Z = 14) has force weight of 1.
    (default) will not add the ZBL potential.
    (input)   radial cutoff = 5 A.
    (input)   angular cutoff = 5 A.
    (default) n_max_radial = 4.
    (default) n_max_angular = 4.
    (default) basis_size_radial = 12.
    (default) basis_size_angular = 12.
    (default) l_max_3body = 4.
    (default) l_max_4body = 2.
    (default) l_max_5body = 0.
    (default) number of neurons = 30.
    (default) lambda_1 = -1.
    (default) lambda_2 = -1.
    (default) lambda_e = 1.
    (default) lambda_f = 1.
    (default) lambda_v = 0.1.
    (default) lambda_shear = 1.
    (default) force_delta = 0.
    (default) batch size = 1000.
    (default) population size = 50.
    (default) maximum number of generations = 100000.
Some calculated parameters:
    number of radial descriptor components = 5.
    number of angular descriptor components = 25.
    total number of descriptor components = 30.
    NN architecture = 30-30-1.
    number of NN parameters to be optimized = 961.
    number of descriptor parameters to be optimized = 130.
    total number of parameters to be optimized = 1091.

---------------------------------------------------------------
Finished reading nep.in.
---------------------------------------------------------------


---------------------------------------------------------------
Started reading train.xyz.
---------------------------------------------------------------

Number of configurations = 150.
Number of devices = 2
Number of batches = 1
Hello, I changed the batch_size from 1000 to 150.

Batch 0:
Number of configurations = 150.

---------------------------------------------------------------
Constructing train_set in device  0.
Total number of atoms = 6800.
Number of atoms in the largest configuration = 64.
Number of configurations having virial = 150.
Radial descriptor with a cutoff of 5 A:
    Minimum number of neighbors for one atom = 24.
    Maximum number of neighbors for one atom = 30.
Angular descriptor with a cutoff of 5 A:
    Minimum number of neighbors for one atom = 24.
    Maximum number of neighbors for one atom = 30.
---------------------------------------------------------------


---------------------------------------------------------------
Constructing train_set in device  1.
Total number of atoms = 6800.
Number of atoms in the largest configuration = 64.
Number of configurations having virial = 150.
Radial descriptor with a cutoff of 5 A:
    Minimum number of neighbors for one atom = 24.
    Maximum number of neighbors for one atom = 30.
Angular descriptor with a cutoff of 5 A:
    Minimum number of neighbors for one atom = 24.
    Maximum number of neighbors for one atom = 30.
---------------------------------------------------------------


---------------------------------------------------------------
Started reading test.xyz.
---------------------------------------------------------------

Number of configurations = 150.

---------------------------------------------------------------
Constructing test_set in device  0.
Total number of atoms = 6800.
Number of atoms in the largest configuration = 64.
Number of configurations having virial = 150.
Radial descriptor with a cutoff of 5 A:
    Minimum number of neighbors for one atom = 24.
    Maximum number of neighbors for one atom = 30.
Angular descriptor with a cutoff of 5 A:
    Minimum number of neighbors for one atom = 24.
    Maximum number of neighbors for one atom = 30.
---------------------------------------------------------------


---------------------------------------------------------------
Constructing test_set in device  1.
Total number of atoms = 6800.
Number of atoms in the largest configuration = 64.
Number of configurations having virial = 150.
Radial descriptor with a cutoff of 5 A:
    Minimum number of neighbors for one atom = 24.
    Maximum number of neighbors for one atom = 30.
Angular descriptor with a cutoff of 5 A:
    Minimum number of neighbors for one atom = 24.
    Maximum number of neighbors for one atom = 30.
---------------------------------------------------------------


---------------------------------------------------------------
Time used for initialization = 0.032975 s.
---------------------------------------------------------------


---------------------------------------------------------------
Started training.
---------------------------------------------------------------

Step    Total-Loss L1Reg-Loss L2Reg-Loss RMSE-E-Train RMSE-F-Train RMSE-V-Train RMSE-E-Test  RMSE-F-Test  RMSE-V-Test  
100     0.23573    0.04239    0.05196    0.00281      0.12990      0.08670      0.00281      0.12990      0.08670      
200     0.20675    0.03953    0.04894    0.00379      0.10909      0.05402      0.00379      0.10909      0.05402      
300     0.21140    0.04214    0.05289    0.00521      0.10242      0.08741      0.00521      0.10242      0.08741      
400     0.19952    0.04196    0.05291    0.00324      0.09419      0.07225      0.00324      0.09419      0.07225      
500     0.22513    0.04878    0.06184    0.00341      0.10619      0.04913      0.00341      0.10619      0.04913      
600     0.23502    0.05244    0.06778    0.00272      0.10209      0.09997      0.00272      0.10209      0.09997      
700     0.22188    0.05054    0.06549    0.00355      0.09659      0.05709      0.00355      0.09659      0.05709      
800     0.22888    0.05403    0.06992    0.00281      0.09525      0.06877      0.00281      0.09525      0.06877      
900     0.21690    0.05202    0.06687    0.00337      0.08901      0.05632      0.00337      0.08901      0.05632      
1000    0.21062    0.05120    0.06600    0.00217      0.08618      0.05072      0.00217      0.08618      0.05072      
1100    0.20987    0.05172    0.06666    0.00275      0.08444      0.04296      0.00275      0.08444      0.04296      
1200    0.21563    0.05369    0.06892    0.00313      0.08258      0.07302      0.00313      0.08258      0.07302      
1300    0.20325    0.05130    0.06577    0.00248      0.07827      0.05423      0.00248      0.07827      0.05423      
1400    0.21978    0.05602    0.07159    0.00404      0.08194      0.06189      0.00404      0.08194      0.06189      
1500    0.22390    0.05714    0.07418    0.00223      0.08564      0.04714      0.00223      0.08564      0.04714      
1600    0.19720    0.05041    0.06571    0.00222      0.07382      0.05037      0.00222      0.07382      0.05037      
1700    0.20463    0.05277    0.06880    0.00207      0.07512      0.05866      0.00207      0.07512      0.05866      
1800    0.19701    0.05093    0.06641    0.00190      0.07365      0.04119      0.00190      0.07365      0.04119      
1900    0.19201    0.04937    0.06498    0.00175      0.07202      0.03890      0.00175      0.07202      0.03890      
2000    0.19019    0.04900    0.06430    0.00173      0.07140      0.03751      0.00173      0.07140      0.03751      
2100    0.17886    0.04650    0.06061    0.00157      0.06651      0.03673      0.00157      0.06651      0.03673      
2200    0.18203    0.04691    0.06169    0.00161      0.06807      0.03746      0.00161      0.06807      0.03746      
2300    0.17674    0.04587    0.06007    0.00148      0.06580      0.03525      0.00148      0.06580      0.03525      
2400    0.17467    0.04497    0.05885    0.00173      0.06526      0.03862      0.00173      0.06526      0.03862      
2500    0.17552    0.04509    0.05930    0.00196      0.06539      0.03788      0.00196      0.06539      0.03788      
2600    0.17012    0.04320    0.05697    0.00159      0.06454      0.03811      0.00159      0.06454      0.03811      
2700    0.16432    0.04183    0.05462    0.00149      0.06297      0.03410      0.00149      0.06297      0.03410      
2800    0.16722    0.04251    0.05561    0.00142      0.06427      0.03414      0.00142      0.06427      0.03414      
2900    0.16363    0.04148    0.05421    0.00172      0.06293      0.03281      0.00172      0.06293      0.03281      
3000    0.15946    0.03959    0.05214    0.00136      0.06306      0.03315      0.00136      0.06306      0.03315      
3100    0.15907    0.03967    0.05179    0.00172      0.06275      0.03130      0.00172      0.06275      0.03130      
3200    0.15967    0.03932    0.05121    0.00147      0.06421      0.03470      0.00147      0.06421      0.03470      
3300    0.15501    0.03830    0.04978    0.00133      0.06234      0.03267      0.00133      0.06234      0.03267      
3400    0.15325    0.03776    0.04878    0.00139      0.06227      0.03040      0.00139      0.06227      0.03040      
3500    0.15321    0.03723    0.04852    0.00139      0.06300      0.03071      0.00139      0.06300      0.03071      
3600    0.15220    0.03658    0.04796    0.00135      0.06291      0.03402      0.00135      0.06291      0.03402      
3700    0.14708    0.03478    0.04597    0.00130      0.06197      0.03063      0.00130      0.06197      0.03063      
3800    0.14458    0.03394    0.04500    0.00130      0.06124      0.03112      0.00130      0.06124      0.03112      
3900    0.14241    0.03348    0.04389    0.00141      0.06028      0.03344      0.00141      0.06028      0.03344      
4000    0.14233    0.03306    0.04377    0.00142      0.06143      0.02645      0.00142      0.06143      0.02645      
4100    0.13963    0.03232    0.04257    0.00140      0.06031      0.03022      0.00140      0.06031      0.03022      
4200    0.13900    0.03166    0.04187    0.00138      0.06079      0.03300      0.00138      0.06079      0.03300      
4300    0.13661    0.03067    0.04099    0.00136      0.06066      0.02937      0.00136      0.06066      0.02937      
4400    0.13686    0.03074    0.04089    0.00136      0.06093      0.02940      0.00136      0.06093      0.02940      
4500    0.13309    0.02956    0.03918    0.00140      0.05972      0.03232      0.00140      0.05972      0.03232      
4600    0.13106    0.02901    0.03863    0.00126      0.05903      0.03132      0.00126      0.05903      0.03132      
4700    0.13031    0.02859    0.03829    0.00130      0.05921      0.02922      0.00130      0.05921      0.02922      
4800    0.13098    0.02879    0.03822    0.00144      0.05866      0.03881      0.00144      0.05866      0.03881      
4900    0.12923    0.02818    0.03744    0.00141      0.05880      0.03399      0.00141      0.05880      0.03399      
5000    0.12610    0.02677    0.03603    0.00146      0.05924      0.02596      0.00146      0.05924      0.02596      
5100    0.12462    0.02622    0.03522    0.00134      0.05865      0.03183      0.00134      0.05865      0.03183      
5200    0.12253    0.02542    0.03413    0.00148      0.05872      0.02782      0.00148      0.05872      0.02782      
5300    0.12203    0.02534    0.03386    0.00124      0.05870      0.02896      0.00124      0.05870      0.02896      
5400    0.12146    0.02462    0.03353    0.00124      0.05926      0.02803      0.00124      0.05926      0.02803      
5500    0.11922    0.02396    0.03267    0.00160      0.05825      0.02742      0.00160      0.05825      0.02742      
5600    0.12003    0.02409    0.03268    0.00141      0.05920      0.02651      0.00141      0.05920      0.02651      
5700    0.11858    0.02374    0.03224    0.00123      0.05872      0.02647      0.00123      0.05872      0.02647      
5800    0.11802    0.02356    0.03196    0.00121      0.05855      0.02733      0.00121      0.05855      0.02733      
5900    0.11624    0.02261    0.03097    0.00123      0.05847      0.02956      0.00123      0.05847      0.02956      
6000    0.11493    0.02214    0.03048    0.00122      0.05807      0.03024      0.00122      0.05807      0.03024      
6100    0.11403    0.02151    0.03005    0.00121      0.05861      0.02653      0.00121      0.05861      0.02653      
6200    0.11288    0.02141    0.02945    0.00133      0.05807      0.02622      0.00133      0.05807      0.02622      
6300    0.11236    0.02091    0.02909    0.00116      0.05855      0.02653      0.00116      0.05855      0.02653      
6400    0.11095    0.02053    0.02863    0.00125      0.05770      0.02830      0.00125      0.05770      0.02830      
6500    0.11059    0.02035    0.02838    0.00122      0.05807      0.02565      0.00122      0.05807      0.02565      
6600    0.10997    0.02023    0.02811    0.00122      0.05784      0.02569      0.00122      0.05784      0.02569      
6700    0.10926    0.01986    0.02791    0.00121      0.05742      0.02847      0.00121      0.05742      0.02847      
6800    0.10894    0.01995    0.02782    0.00118      0.05718      0.02801      0.00118      0.05718      0.02801      
6900    0.10826    0.01978    0.02741    0.00111      0.05734      0.02620      0.00111      0.05734      0.02620      
7000    0.10723    0.01917    0.02694    0.00117      0.05720      0.02752      0.00117      0.05720      0.02752      
7100    0.10702    0.01899    0.02678    0.00124      0.05728      0.02740      0.00124      0.05728      0.02740      
7200    0.10676    0.01895    0.02665    0.00113      0.05744      0.02593      0.00113      0.05744      0.02593      
7300    0.10537    0.01814    0.02601    0.00120      0.05749      0.02534      0.00120      0.05749      0.02534      
7400    0.10468    0.01781    0.02567    0.00112      0.05753      0.02551      0.00112      0.05753      0.02551      
7500    0.10453    0.01791    0.02576    0.00116      0.05700      0.02703      0.00116      0.05700      0.02703      
7600    0.10397    0.01754    0.02529    0.00116      0.05692      0.03057      0.00116      0.05692      0.03057      
7700    0.10322    0.01715    0.02486    0.00118      0.05712      0.02918      0.00118      0.05712      0.02918      
7800    0.10258    0.01686    0.02464    0.00117      0.05717      0.02750      0.00117      0.05717      0.02750      
7900    0.10171    0.01660    0.02432    0.00116      0.05694      0.02692      0.00116      0.05694      0.02692      
8000    0.10101    0.01620    0.02396    0.00125      0.05700      0.02603      0.00125      0.05700      0.02603      
8100    0.10080    0.01624    0.02387    0.00115      0.05699      0.02546      0.00115      0.05699      0.02546      
8200    0.10034    0.01587    0.02361    0.00112      0.05717      0.02570      0.00112      0.05717      0.02570      
8300    0.10043    0.01603    0.02362    0.00119      0.05696      0.02632      0.00119      0.05696      0.02632      
8400    0.09942    0.01559    0.02311    0.00114      0.05689      0.02698      0.00114      0.05689      0.02698      
8500    0.09908    0.01547    0.02298    0.00116      0.05660      0.02865      0.00116      0.05660      0.02865      
8600    0.09864    0.01531    0.02280    0.00113      0.05675      0.02644      0.00113      0.05675      0.02644      
8700    0.09744    0.01485    0.02234    0.00112      0.05660      0.02532      0.00112      0.05660      0.02532      
8800    0.09733    0.01480    0.02231    0.00110      0.05653      0.02586      0.00110      0.05653      0.02586      
8900    0.09685    0.01440    0.02215    0.00114      0.05644      0.02724      0.00114      0.05644      0.02724      
9000    0.09629    0.01410    0.02192    0.00109      0.05653      0.02646      0.00109      0.05653      0.02646      
9100    0.09631    0.01398    0.02182    0.00114      0.05680      0.02558      0.00114      0.05680      0.02558      
9200    0.09547    0.01375    0.02158    0.00108      0.05657      0.02496      0.00108      0.05657      0.02496      
9300    0.09509    0.01354    0.02134    0.00111      0.05644      0.02665      0.00111      0.05644      0.02665      
9400    0.09439    0.01323    0.02103    0.00114      0.05648      0.02517      0.00114      0.05648      0.02517      
9500    0.09421    0.01296    0.02091    0.00109      0.05661      0.02637      0.00109      0.05661      0.02637      
9600    0.09387    0.01305    0.02088    0.00114      0.05613      0.02674      0.00114      0.05613      0.02674      
9700    0.09342    0.01270    0.02058    0.00119      0.05631      0.02638      0.00119      0.05631      0.02638      
9800    0.09319    0.01254    0.02047    0.00117      0.05638      0.02635      0.00117      0.05638      0.02635      
9900    0.09272    0.01243    0.02034    0.00111      0.05629      0.02552      0.00111      0.05629      0.02552      
10000   0.09295    0.01242    0.02023    0.00118      0.05673      0.02388      0.00118      0.05673      0.02388      
10100   0.09253    0.01237    0.02022    0.00115      0.05618      0.02629      0.00115      0.05618      0.02629      
10200   0.09235    0.01214    0.02010    0.00118      0.05634      0.02594      0.00118      0.05634      0.02594      
10300   0.09192    0.01199    0.01994    0.00113      0.05637      0.02491      0.00113      0.05637      0.02491      
10400   0.09155    0.01183    0.01975    0.00108      0.05642      0.02471      0.00108      0.05642      0.02471      
10500   0.09123    0.01160    0.01961    0.00110      0.05644      0.02481      0.00110      0.05644      0.02481      
10600   0.09077    0.01144    0.01947    0.00109      0.05619      0.02580      0.00109      0.05619      0.02580      
10700   0.09050    0.01130    0.01932    0.00110      0.05619      0.02600      0.00110      0.05619      0.02600      
10800   0.09013    0.01107    0.01921    0.00112      0.05617      0.02565      0.00112      0.05617      0.02565      
10900   0.08991    0.01088    0.01911    0.00107      0.05647      0.02382      0.00107      0.05647      0.02382      
11000   0.08938    0.01070    0.01889    0.00113      0.05617      0.02491      0.00113      0.05617      0.02491      
11100   0.08908    0.01050    0.01882    0.00118      0.05603      0.02549      0.00118      0.05603      0.02549      
11200   0.08872    0.01036    0.01868    0.00113      0.05603      0.02530      0.00113      0.05603      0.02530      
11300   0.08876    0.01043    0.01869    0.00106      0.05611      0.02463      0.00106      0.05611      0.02463      
11400   0.08847    0.01031    0.01853    0.00108      0.05614      0.02407      0.00108      0.05614      0.02407      
11500   0.08804    0.01010    0.01835    0.00111      0.05592      0.02564      0.00111      0.05592      0.02564      
11600   0.08791    0.01005    0.01826    0.00110      0.05600      0.02505      0.00110      0.05600      0.02505      
11700   0.08762    0.00986    0.01815    0.00107      0.05612      0.02416      0.00107      0.05612      0.02416      
11800   0.08735    0.00975    0.01804    0.00109      0.05606      0.02419      0.00109      0.05606      0.02419      
11900   0.08725    0.00968    0.01798    0.00114      0.05593      0.02521      0.00114      0.05593      0.02521      
12000   0.08707    0.00960    0.01792    0.00112      0.05592      0.02520      0.00112      0.05592      0.02520      
12100   0.08682    0.00939    0.01781    0.00111      0.05602      0.02494      0.00111      0.05602      0.02494      
12200   0.08650    0.00923    0.01771    0.00111      0.05601      0.02424      0.00111      0.05601      0.02424      
12300   0.08635    0.00926    0.01767    0.00108      0.05590      0.02442      0.00108      0.05590      0.02442      
12400   0.08612    0.00903    0.01756    0.00111      0.05594      0.02487      0.00111      0.05594      0.02487      
12500   0.08598    0.00891    0.01750    0.00110      0.05597      0.02492      0.00110      0.05597      0.02492      
12600   0.08580    0.00885    0.01741    0.00109      0.05598      0.02472      0.00109      0.05598      0.02472      
12700   0.08576    0.00888    0.01739    0.00109      0.05592      0.02475      0.00109      0.05592      0.02475      
12800   0.08559    0.00879    0.01733    0.00108      0.05590      0.02490      0.00108      0.05590      0.02490      
12900   0.08538    0.00871    0.01725    0.00109      0.05586      0.02478      0.00109      0.05586      0.02478      
13000   0.08534    0.00863    0.01722    0.00110      0.05586      0.02531      0.00110      0.05586      0.02531      
13100   0.08498    0.00844    0.01710    0.00108      0.05597      0.02386      0.00108      0.05597      0.02386      
13200   0.08485    0.00841    0.01705    0.00107      0.05585      0.02463      0.00107      0.05585      0.02463      
13300   0.08472    0.00834    0.01700    0.00107      0.05589      0.02423      0.00107      0.05589      0.02423      
13400   0.08458    0.00824    0.01695    0.00105      0.05597      0.02378      0.00105      0.05597      0.02378      
13500   0.08454    0.00822    0.01691    0.00108      0.05593      0.02407      0.00108      0.05593      0.02407      
13600   0.08428    0.00810    0.01682    0.00107      0.05588      0.02408      0.00107      0.05588      0.02408      
13700   0.08419    0.00803    0.01678    0.00108      0.05585      0.02453      0.00108      0.05585      0.02453      
13800   0.08411    0.00798    0.01674    0.00115      0.05585      0.02383      0.00115      0.05585      0.02383      
13900   0.08391    0.00792    0.01669    0.00108      0.05577      0.02455      0.00108      0.05577      0.02455      
14000   0.08382    0.00784    0.01666    0.00107      0.05583      0.02420      0.00107      0.05583      0.02420      
14100   0.08366    0.00775    0.01660    0.00109      0.05580      0.02415      0.00109      0.05580      0.02415      
14200   0.08354    0.00773    0.01658    0.00106      0.05579      0.02390      0.00106      0.05579      0.02390      
14300   0.08344    0.00763    0.01653    0.00112      0.05575      0.02402      0.00112      0.05575      0.02402      
14400   0.08331    0.00757    0.01647    0.00109      0.05573      0.02451      0.00109      0.05573      0.02451      
14500   0.08317    0.00754    0.01643    0.00108      0.05570      0.02414      0.00108      0.05570      0.02414      
14600   0.08305    0.00747    0.01636    0.00109      0.05569      0.02442      0.00109      0.05569      0.02442      
14700   0.08300    0.00747    0.01633    0.00106      0.05572      0.02419      0.00106      0.05572      0.02419      
14800   0.08285    0.00739    0.01626    0.00111      0.05566      0.02436      0.00111      0.05566      0.02436      
14900   0.08275    0.00734    0.01623    0.00108      0.05566      0.02434      0.00108      0.05566      0.02434      
15000   0.08263    0.00723    0.01617    0.00107      0.05571      0.02448      0.00107      0.05571      0.02448      
15100   0.08245    0.00716    0.01612    0.00107      0.05570      0.02406      0.00107      0.05570      0.02406      
15200   0.08231    0.00706    0.01608    0.00107      0.05567      0.02425      0.00107      0.05567      0.02425      
15300   0.08222    0.00702    0.01602    0.00106      0.05571      0.02415      0.00106      0.05571      0.02415      
15400   0.08213    0.00698    0.01598    0.00108      0.05569      0.02392      0.00108      0.05569      0.02392      
15500   0.08200    0.00692    0.01594    0.00106      0.05569      0.02399      0.00106      0.05569      0.02399      
15600   0.08187    0.00683    0.01590    0.00105      0.05565      0.02426      0.00105      0.05565      0.02426      
15700   0.08180    0.00682    0.01587    0.00107      0.05562      0.02423      0.00107      0.05562      0.02423      
15800   0.08173    0.00676    0.01583    0.00106      0.05570      0.02385      0.00106      0.05570      0.02385      
15900   0.08164    0.00673    0.01580    0.00106      0.05564      0.02401      0.00106      0.05564      0.02401      
16000   0.08155    0.00667    0.01576    0.00105      0.05569      0.02381      0.00105      0.05569      0.02381      
16100   0.08149    0.00667    0.01573    0.00106      0.05564      0.02390      0.00106      0.05564      0.02390      
16200   0.08141    0.00664    0.01570    0.00104      0.05567      0.02360      0.00104      0.05567      0.02360      
16300   0.08132    0.00659    0.01565    0.00105      0.05564      0.02394      0.00105      0.05564      0.02394      
16400   0.08123    0.00655    0.01562    0.00105      0.05566      0.02360      0.00105      0.05566      0.02360      
16500   0.08113    0.00650    0.01559    0.00105      0.05560      0.02392      0.00105      0.05560      0.02392      
16600   0.08106    0.00647    0.01555    0.00106      0.05562      0.02356      0.00106      0.05562      0.02356      
16700   0.08097    0.00642    0.01552    0.00106      0.05560      0.02374      0.00106      0.05560      0.02374      
16800   0.08090    0.00640    0.01549    0.00105      0.05559      0.02373      0.00105      0.05559      0.02373      
16900   0.08081    0.00635    0.01545    0.00105      0.05560      0.02355      0.00105      0.05560      0.02355      
17000   0.08073    0.00631    0.01543    0.00105      0.05558      0.02373      0.00105      0.05558      0.02373      
17100   0.08067    0.00627    0.01540    0.00105      0.05556      0.02383      0.00105      0.05556      0.02383      
17200   0.08062    0.00625    0.01538    0.00106      0.05559      0.02340      0.00106      0.05559      0.02340      
17300   0.08056    0.00622    0.01535    0.00105      0.05558      0.02363      0.00105      0.05558      0.02363      
17400   0.08049    0.00619    0.01533    0.00105      0.05555      0.02373      0.00105      0.05555      0.02373      
17500   0.08044    0.00614    0.01531    0.00105      0.05556      0.02377      0.00105      0.05556      0.02377      
17600   0.08039    0.00615    0.01529    0.00105      0.05552      0.02385      0.00105      0.05552      0.02385      
17700   0.08034    0.00612    0.01528    0.00105      0.05553      0.02350      0.00105      0.05553      0.02350      
17800   0.08028    0.00607    0.01526    0.00105      0.05553      0.02373      0.00105      0.05553      0.02373      
17900   0.08023    0.00606    0.01524    0.00106      0.05552      0.02347      0.00106      0.05552      0.02347      
18000   0.08018    0.00604    0.01523    0.00105      0.05550      0.02364      0.00105      0.05550      0.02364      
18100   0.08012    0.00601    0.01519    0.00104      0.05554      0.02339      0.00104      0.05554      0.02339      
18200   0.08006    0.00598    0.01517    0.00104      0.05551      0.02358      0.00104      0.05551      0.02358      
18300   0.08001    0.00596    0.01514    0.00104      0.05555      0.02318      0.00104      0.05555      0.02318      
18400   0.07993    0.00593    0.01511    0.00104      0.05552      0.02333      0.00104      0.05552      0.02333      
18500   0.07988    0.00591    0.01510    0.00104      0.05552      0.02318      0.00104      0.05552      0.02318      
18600   0.07984    0.00590    0.01507    0.00104      0.05552      0.02307      0.00104      0.05552      0.02307      
18700   0.07979    0.00587    0.01505    0.00104      0.05551      0.02318      0.00104      0.05551      0.02318      
18800   0.07974    0.00585    0.01504    0.00103      0.05550      0.02322      0.00103      0.05550      0.02322      
18900   0.07969    0.00584    0.01501    0.00104      0.05551      0.02302      0.00104      0.05551      0.02302      
19000   0.07966    0.00582    0.01499    0.00104      0.05547      0.02331      0.00104      0.05547      0.02331      
19100   0.07961    0.00582    0.01498    0.00104      0.05547      0.02312      0.00104      0.05547      0.02312      
19200   0.07957    0.00580    0.01496    0.00104      0.05547      0.02301      0.00104      0.05547      0.02301      
19300   0.07952    0.00577    0.01493    0.00104      0.05548      0.02296      0.00104      0.05548      0.02296      
19400   0.07947    0.00575    0.01491    0.00104      0.05545      0.02309      0.00104      0.05545      0.02309      
19500   0.07943    0.00574    0.01489    0.00105      0.05542      0.02326      0.00105      0.05542      0.02326      
19600   0.07938    0.00573    0.01487    0.00104      0.05544      0.02314      0.00104      0.05544      0.02314      
19700   0.07934    0.00571    0.01485    0.00104      0.05544      0.02303      0.00104      0.05544      0.02303      
19800   0.07930    0.00570    0.01483    0.00104      0.05542      0.02305      0.00104      0.05542      0.02305      
19900   0.07926    0.00569    0.01481    0.00104      0.05540      0.02317      0.00104      0.05540      0.02317      
20000   0.07921    0.00567    0.01480    0.00104      0.05540      0.02302      0.00104      0.05540      0.02302      
20100   0.07918    0.00565    0.01477    0.00105      0.05539      0.02313      0.00105      0.05539      0.02313      
20200   0.07914    0.00564    0.01476    0.00105      0.05537      0.02316      0.00105      0.05537      0.02316      
20300   0.07910    0.00563    0.01475    0.00104      0.05537      0.02314      0.00104      0.05537      0.02314      
20400   0.07906    0.00562    0.01473    0.00104      0.05536      0.02310      0.00104      0.05536      0.02310      
20500   0.07903    0.00561    0.01470    0.00104      0.05535      0.02318      0.00104      0.05535      0.02318      
20600   0.07899    0.00560    0.01469    0.00104      0.05535      0.02313      0.00104      0.05535      0.02313      
20700   0.07895    0.00558    0.01467    0.00104      0.05534      0.02313      0.00104      0.05534      0.02313      
20800   0.07891    0.00557    0.01465    0.00104      0.05534      0.02307      0.00104      0.05534      0.02307      
20900   0.07888    0.00556    0.01463    0.00105      0.05534      0.02303      0.00105      0.05534      0.02303      
21000   0.07884    0.00555    0.01462    0.00105      0.05533      0.02298      0.00105      0.05533      0.02298      
21100   0.07880    0.00554    0.01459    0.00104      0.05532      0.02305      0.00104      0.05532      0.02305      
21200   0.07876    0.00553    0.01457    0.00104      0.05530      0.02310      0.00104      0.05530      0.02310      
21300   0.07872    0.00552    0.01455    0.00104      0.05530      0.02307      0.00104      0.05530      0.02307      
21400   0.07869    0.00550    0.01454    0.00105      0.05530      0.02303      0.00105      0.05530      0.02303      
21500   0.07865    0.00549    0.01451    0.00105      0.05529      0.02301      0.00105      0.05529      0.02301      
21600   0.07862    0.00549    0.01449    0.00104      0.05529      0.02300      0.00104      0.05529      0.02300      
21700   0.07858    0.00547    0.01448    0.00104      0.05529      0.02298      0.00104      0.05529      0.02298      
21800   0.07855    0.00546    0.01446    0.00104      0.05529      0.02297      0.00104      0.05529      0.02297      
21900   0.07852    0.00546    0.01444    0.00105      0.05528      0.02293      0.00105      0.05528      0.02293      
22000   0.07849    0.00544    0.01443    0.00104      0.05528      0.02296      0.00104      0.05528      0.02296      
22100   0.07845    0.00544    0.01441    0.00105      0.05527      0.02286      0.00105      0.05527      0.02286      
22200   0.07842    0.00542    0.01440    0.00105      0.05526      0.02293      0.00105      0.05526      0.02293      
22300   0.07839    0.00542    0.01438    0.00105      0.05526      0.02285      0.00105      0.05526      0.02285      
22400   0.07836    0.00541    0.01437    0.00105      0.05525      0.02287      0.00105      0.05525      0.02287      
22500   0.07833    0.00540    0.01435    0.00104      0.05525      0.02282      0.00104      0.05525      0.02282      
22600   0.07830    0.00539    0.01434    0.00104      0.05525      0.02284      0.00104      0.05525      0.02284      
22700   0.07827    0.00538    0.01432    0.00104      0.05524      0.02288      0.00104      0.05524      0.02288      
22800   0.07825    0.00537    0.01431    0.00104      0.05524      0.02279      0.00104      0.05524      0.02279      
22900   0.07822    0.00537    0.01430    0.00104      0.05524      0.02271      0.00104      0.05524      0.02271      
23000   0.07819    0.00536    0.01428    0.00104      0.05523      0.02275      0.00104      0.05523      0.02275      
23100   0.07817    0.00536    0.01427    0.00104      0.05522      0.02275      0.00104      0.05522      0.02275      
23200   0.07814    0.00535    0.01426    0.00104      0.05522      0.02275      0.00104      0.05522      0.02275      
23300   0.07811    0.00534    0.01424    0.00104      0.05521      0.02277      0.00104      0.05521      0.02277      
23400   0.07809    0.00534    0.01422    0.00104      0.05521      0.02274      0.00104      0.05521      0.02274      
23500   0.07806    0.00533    0.01421    0.00104      0.05521      0.02273      0.00104      0.05521      0.02273      
23600   0.07804    0.00532    0.01420    0.00104      0.05521      0.02270      0.00104      0.05521      0.02270      
23700   0.07801    0.00532    0.01419    0.00104      0.05520      0.02268      0.00104      0.05520      0.02268      
23800   0.07799    0.00531    0.01418    0.00104      0.05519      0.02272      0.00104      0.05519      0.02272      
23900   0.07797    0.00531    0.01417    0.00104      0.05519      0.02266      0.00104      0.05519      0.02266      
24000   0.07794    0.00530    0.01415    0.00104      0.05518      0.02271      0.00104      0.05518      0.02271      
24100   0.07792    0.00530    0.01414    0.00104      0.05518      0.02263      0.00104      0.05518      0.02263      
24200   0.07790    0.00529    0.01413    0.00104      0.05517      0.02267      0.00104      0.05517      0.02267      
24300   0.07788    0.00529    0.01412    0.00104      0.05517      0.02266      0.00104      0.05517      0.02266      
24400   0.07785    0.00528    0.01411    0.00104      0.05516      0.02262      0.00104      0.05516      0.02262      
24500   0.07783    0.00528    0.01410    0.00104      0.05516      0.02260      0.00104      0.05516      0.02260      
24600   0.07781    0.00527    0.01409    0.00104      0.05515      0.02258      0.00104      0.05515      0.02258      
24700   0.07779    0.00527    0.01408    0.00104      0.05515      0.02252      0.00104      0.05515      0.02252      
24800   0.07776    0.00526    0.01407    0.00103      0.05514      0.02258      0.00103      0.05514      0.02258      
24900   0.07774    0.00526    0.01406    0.00104      0.05513      0.02256      0.00104      0.05513      0.02256      
25000   0.07772    0.00525    0.01405    0.00103      0.05513      0.02256      0.00103      0.05513      0.02256      
25100   0.07770    0.00525    0.01404    0.00103      0.05513      0.02254      0.00103      0.05513      0.02254      
25200   0.07768    0.00524    0.01403    0.00103      0.05512      0.02253      0.00103      0.05512      0.02253      
25300   0.07766    0.00524    0.01402    0.00103      0.05512      0.02252      0.00103      0.05512      0.02252      
25400   0.07764    0.00523    0.01401    0.00103      0.05512      0.02251      0.00103      0.05512      0.02251      
25500   0.07762    0.00523    0.01400    0.00103      0.05511      0.02253      0.00103      0.05511      0.02253      
25600   0.07760    0.00523    0.01398    0.00103      0.05511      0.02252      0.00103      0.05511      0.02252      
25700   0.07758    0.00522    0.01397    0.00103      0.05510      0.02254      0.00103      0.05510      0.02254      
25800   0.07756    0.00522    0.01396    0.00103      0.05510      0.02249      0.00103      0.05510      0.02249      
25900   0.07754    0.00521    0.01395    0.00103      0.05510      0.02243      0.00103      0.05510      0.02243      
26000   0.07752    0.00521    0.01394    0.00103      0.05510      0.02246      0.00103      0.05510      0.02246      
26100   0.07750    0.00520    0.01393    0.00103      0.05509      0.02245      0.00103      0.05509      0.02245      
26200   0.07748    0.00520    0.01392    0.00103      0.05509      0.02241      0.00103      0.05509      0.02241      
26300   0.07746    0.00519    0.01390    0.00103      0.05510      0.02238      0.00103      0.05510      0.02238      
26400   0.07744    0.00519    0.01389    0.00103      0.05509      0.02239      0.00103      0.05509      0.02239      
26500   0.07742    0.00518    0.01388    0.00103      0.05509      0.02239      0.00103      0.05509      0.02239      
26600   0.07739    0.00518    0.01386    0.00103      0.05508      0.02236      0.00103      0.05508      0.02236      
26700   0.07737    0.00517    0.01385    0.00103      0.05508      0.02236      0.00103      0.05508      0.02236      
26800   0.07735    0.00517    0.01383    0.00103      0.05508      0.02234      0.00103      0.05508      0.02234      
26900   0.07733    0.00516    0.01382    0.00103      0.05508      0.02232      0.00103      0.05508      0.02232      
27000   0.07731    0.00516    0.01381    0.00103      0.05508      0.02233      0.00103      0.05508      0.02233      
27100   0.07729    0.00515    0.01379    0.00103      0.05508      0.02234      0.00103      0.05508      0.02234      
27200   0.07727    0.00515    0.01378    0.00103      0.05507      0.02235      0.00103      0.05507      0.02235      
27300   0.07725    0.00514    0.01377    0.00103      0.05507      0.02233      0.00103      0.05507      0.02233      
27400   0.07723    0.00514    0.01375    0.00103      0.05507      0.02233      0.00103      0.05507      0.02233      
27500   0.07721    0.00514    0.01374    0.00103      0.05507      0.02232      0.00103      0.05507      0.02232      
27600   0.07719    0.00513    0.01373    0.00103      0.05507      0.02231      0.00103      0.05507      0.02231      
27700   0.07717    0.00513    0.01372    0.00103      0.05507      0.02230      0.00103      0.05507      0.02230      
27800   0.07716    0.00512    0.01371    0.00103      0.05507      0.02232      0.00103      0.05507      0.02232      
27900   0.07714    0.00512    0.01370    0.00103      0.05507      0.02228      0.00103      0.05507      0.02228      
28000   0.07712    0.00511    0.01369    0.00103      0.05506      0.02230      0.00103      0.05506      0.02230      
28100   0.07711    0.00511    0.01368    0.00103      0.05507      0.02227      0.00103      0.05507      0.02227      
28200   0.07709    0.00510    0.01367    0.00103      0.05506      0.02227      0.00103      0.05506      0.02227      
28300   0.07707    0.00510    0.01366    0.00103      0.05506      0.02226      0.00103      0.05506      0.02226      
28400   0.07706    0.00509    0.01365    0.00103      0.05506      0.02229      0.00103      0.05506      0.02229      
28500   0.07704    0.00509    0.01364    0.00103      0.05506      0.02226      0.00103      0.05506      0.02226      
28600   0.07702    0.00509    0.01363    0.00103      0.05505      0.02226      0.00103      0.05505      0.02226      
28700   0.07701    0.00508    0.01362    0.00103      0.05505      0.02227      0.00103      0.05505      0.02227      
28800   0.07699    0.00508    0.01361    0.00103      0.05505      0.02225      0.00103      0.05505      0.02225      
28900   0.07698    0.00507    0.01360    0.00103      0.05505      0.02225      0.00103      0.05505      0.02225      
29000   0.07696    0.00507    0.01359    0.00103      0.05505      0.02223      0.00103      0.05505      0.02223      
29100   0.07695    0.00506    0.01358    0.00103      0.05505      0.02222      0.00103      0.05505      0.02222      
29200   0.07693    0.00506    0.01358    0.00103      0.05505      0.02220      0.00103      0.05505      0.02220      
29300   0.07692    0.00506    0.01357    0.00103      0.05504      0.02222      0.00103      0.05504      0.02222      
29400   0.07690    0.00505    0.01356    0.00103      0.05504      0.02223      0.00103      0.05504      0.02223      
29500   0.07689    0.00505    0.01355    0.00103      0.05504      0.02221      0.00103      0.05504      0.02221      
29600   0.07687    0.00504    0.01354    0.00103      0.05503      0.02221      0.00103      0.05503      0.02221      
29700   0.07686    0.00504    0.01354    0.00103      0.05503      0.02223      0.00103      0.05503      0.02223      
29800   0.07684    0.00504    0.01353    0.00103      0.05503      0.02222      0.00103      0.05503      0.02222      
29900   0.07683    0.00503    0.01352    0.00103      0.05502      0.02224      0.00103      0.05502      0.02224      
30000   0.07682    0.00503    0.01351    0.00103      0.05502      0.02224      0.00103      0.05502      0.02224      
30100   0.07680    0.00502    0.01350    0.00103      0.05502      0.02223      0.00103      0.05502      0.02223      
30200   0.07679    0.00502    0.01350    0.00103      0.05501      0.02222      0.00103      0.05501      0.02222      
30300   0.07677    0.00502    0.01349    0.00103      0.05501      0.02220      0.00103      0.05501      0.02220      
30400   0.07676    0.00501    0.01348    0.00103      0.05501      0.02222      0.00103      0.05501      0.02222      
30500   0.07675    0.00501    0.01348    0.00103      0.05501      0.02222      0.00103      0.05501      0.02222      
30600   0.07673    0.00500    0.01347    0.00103      0.05501      0.02222      0.00103      0.05501      0.02222      
30700   0.07672    0.00500    0.01346    0.00103      0.05500      0.02222      0.00103      0.05500      0.02222      
30800   0.07671    0.00500    0.01345    0.00103      0.05500      0.02220      0.00103      0.05500      0.02220      
30900   0.07669    0.00499    0.01345    0.00103      0.05500      0.02221      0.00103      0.05500      0.02221      
31000   0.07668    0.00499    0.01344    0.00103      0.05500      0.02221      0.00103      0.05500      0.02221      
31100   0.07667    0.00499    0.01343    0.00103      0.05500      0.02219      0.00103      0.05500      0.02219      
31200   0.07665    0.00498    0.01343    0.00103      0.05499      0.02220      0.00103      0.05499      0.02220      
31300   0.07664    0.00498    0.01342    0.00103      0.05499      0.02220      0.00103      0.05499      0.02220      
31400   0.07662    0.00497    0.01341    0.00103      0.05499      0.02219      0.00103      0.05499      0.02219      
31500   0.07661    0.00497    0.01340    0.00103      0.05499      0.02219      0.00103      0.05499      0.02219      
31600   0.07660    0.00497    0.01340    0.00103      0.05498      0.02219      0.00103      0.05498      0.02219      
31700   0.07659    0.00496    0.01339    0.00103      0.05498      0.02216      0.00103      0.05498      0.02216      
31800   0.07657    0.00496    0.01338    0.00103      0.05498      0.02217      0.00103      0.05498      0.02217      
31900   0.07656    0.00496    0.01338    0.00103      0.05498      0.02215      0.00103      0.05498      0.02215      
32000   0.07655    0.00495    0.01337    0.00103      0.05498      0.02214      0.00103      0.05498      0.02214      
32100   0.07653    0.00495    0.01336    0.00103      0.05497      0.02216      0.00103      0.05497      0.02216      
32200   0.07652    0.00495    0.01336    0.00103      0.05497      0.02215      0.00103      0.05497      0.02215      
32300   0.07651    0.00494    0.01335    0.00103      0.05497      0.02214      0.00103      0.05497      0.02214      
32400   0.07650    0.00494    0.01334    0.00103      0.05497      0.02215      0.00103      0.05497      0.02215      
32500   0.07649    0.00494    0.01333    0.00103      0.05496      0.02217      0.00103      0.05496      0.02217      
32600   0.07647    0.00493    0.01333    0.00103      0.05497      0.02216      0.00103      0.05497      0.02216      
32700   0.07646    0.00493    0.01332    0.00103      0.05496      0.02216      0.00103      0.05496      0.02216      
32800   0.07645    0.00493    0.01331    0.00103      0.05496      0.02217      0.00103      0.05496      0.02217      
32900   0.07643    0.00492    0.01330    0.00103      0.05496      0.02217      0.00103      0.05496      0.02217      
33000   0.07642    0.00492    0.01329    0.00103      0.05496      0.02219      0.00103      0.05496      0.02219      
33100   0.07641    0.00492    0.01329    0.00103      0.05495      0.02220      0.00103      0.05495      0.02220      
33200   0.07640    0.00491    0.01328    0.00103      0.05495      0.02218      0.00103      0.05495      0.02218      
33300   0.07638    0.00491    0.01327    0.00103      0.05495      0.02218      0.00103      0.05495      0.02218      
33400   0.07637    0.00491    0.01326    0.00103      0.05495      0.02218      0.00103      0.05495      0.02218      
33500   0.07636    0.00490    0.01326    0.00103      0.05494      0.02220      0.00103      0.05494      0.02220      
33600   0.07634    0.00490    0.01325    0.00103      0.05494      0.02220      0.00103      0.05494      0.02220      
33700   0.07633    0.00490    0.01324    0.00103      0.05494      0.02220      0.00103      0.05494      0.02220      
33800   0.07632    0.00489    0.01323    0.00103      0.05494      0.02219      0.00103      0.05494      0.02219      
33900   0.07631    0.00489    0.01323    0.00103      0.05494      0.02219      0.00103      0.05494      0.02219      
34000   0.07629    0.00489    0.01322    0.00103      0.05493      0.02219      0.00103      0.05493      0.02219      
34100   0.07628    0.00488    0.01321    0.00104      0.05493      0.02220      0.00104      0.05493      0.02220      
34200   0.07627    0.00488    0.01321    0.00104      0.05493      0.02221      0.00104      0.05493      0.02221      
34300   0.07626    0.00488    0.01320    0.00104      0.05493      0.02218      0.00104      0.05493      0.02218      
34400   0.07624    0.00487    0.01319    0.00104      0.05493      0.02220      0.00104      0.05493      0.02220      
34500   0.07623    0.00487    0.01318    0.00104      0.05492      0.02220      0.00104      0.05492      0.02220      
34600   0.07622    0.00486    0.01317    0.00104      0.05492      0.02221      0.00104      0.05492      0.02221      
34700   0.07621    0.00486    0.01317    0.00104      0.05492      0.02222      0.00104      0.05492      0.02222      
34800   0.07619    0.00486    0.01316    0.00104      0.05492      0.02222      0.00104      0.05492      0.02222      
34900   0.07618    0.00485    0.01315    0.00104      0.05492      0.02223      0.00104      0.05492      0.02223      
35000   0.07617    0.00485    0.01315    0.00104      0.05491      0.02222      0.00104      0.05491      0.02222      
35100   0.07616    0.00485    0.01314    0.00104      0.05491      0.02223      0.00104      0.05491      0.02223      
35200   0.07615    0.00484    0.01313    0.00104      0.05491      0.02222      0.00104      0.05491      0.02222      
35300   0.07614    0.00484    0.01313    0.00104      0.05491      0.02223      0.00104      0.05491      0.02223      
35400   0.07613    0.00484    0.01312    0.00104      0.05491      0.02222      0.00104      0.05491      0.02222      
35500   0.07611    0.00484    0.01311    0.00104      0.05491      0.02222      0.00104      0.05491      0.02222      
35600   0.07610    0.00483    0.01310    0.00104      0.05491      0.02222      0.00104      0.05491      0.02222      
35700   0.07609    0.00483    0.01310    0.00104      0.05491      0.02222      0.00104      0.05491      0.02222      
35800   0.07608    0.00483    0.01309    0.00104      0.05490      0.02222      0.00104      0.05490      0.02222      
35900   0.07607    0.00482    0.01308    0.00104      0.05490      0.02223      0.00104      0.05490      0.02223      
36000   0.07606    0.00482    0.01308    0.00104      0.05490      0.02222      0.00104      0.05490      0.02222      
36100   0.07604    0.00482    0.01307    0.00104      0.05490      0.02222      0.00104      0.05490      0.02222      
36200   0.07603    0.00481    0.01306    0.00104      0.05490      0.02222      0.00104      0.05490      0.02222      
36300   0.07602    0.00481    0.01306    0.00104      0.05490      0.02222      0.00104      0.05490      0.02222      
36400   0.07601    0.00481    0.01305    0.00104      0.05489      0.02221      0.00104      0.05489      0.02221      
36500   0.07600    0.00480    0.01304    0.00104      0.05489      0.02219      0.00104      0.05489      0.02219      
36600   0.07598    0.00480    0.01304    0.00104      0.05489      0.02221      0.00104      0.05489      0.02221      
36700   0.07597    0.00480    0.01303    0.00104      0.05489      0.02219      0.00104      0.05489      0.02219      
36800   0.07596    0.00479    0.01302    0.00104      0.05488      0.02220      0.00104      0.05488      0.02220      
36900   0.07595    0.00479    0.01302    0.00104      0.05488      0.02219      0.00104      0.05488      0.02219      
37000   0.07594    0.00479    0.01301    0.00104      0.05488      0.02219      0.00104      0.05488      0.02219      
37100   0.07592    0.00478    0.01300    0.00104      0.05488      0.02217      0.00104      0.05488      0.02217      
37200   0.07591    0.00478    0.01300    0.00104      0.05488      0.02219      0.00104      0.05488      0.02219      
37300   0.07590    0.00478    0.01299    0.00104      0.05488      0.02218      0.00104      0.05488      0.02218      
37400   0.07589    0.00477    0.01298    0.00104      0.05487      0.02217      0.00104      0.05487      0.02217      
37500   0.07588    0.00477    0.01298    0.00104      0.05487      0.02217      0.00104      0.05487      0.02217      
37600   0.07587    0.00477    0.01297    0.00104      0.05487      0.02217      0.00104      0.05487      0.02217      
37700   0.07586    0.00477    0.01297    0.00104      0.05487      0.02217      0.00104      0.05487      0.02217      
37800   0.07584    0.00476    0.01296    0.00104      0.05487      0.02216      0.00104      0.05487      0.02216      
37900   0.07583    0.00476    0.01295    0.00104      0.05487      0.02215      0.00104      0.05487      0.02215      
38000   0.07582    0.00476    0.01295    0.00104      0.05486      0.02216      0.00104      0.05486      0.02216      
38100   0.07581    0.00475    0.01294    0.00104      0.05486      0.02217      0.00104      0.05486      0.02217      
38200   0.07580    0.00475    0.01294    0.00104      0.05486      0.02218      0.00104      0.05486      0.02218      
38300   0.07579    0.00475    0.01293    0.00104      0.05486      0.02218      0.00104      0.05486      0.02218      
38400   0.07578    0.00475    0.01292    0.00104      0.05485      0.02219      0.00104      0.05485      0.02219      
38500   0.07577    0.00474    0.01292    0.00104      0.05485      0.02219      0.00104      0.05485      0.02219      
38600   0.07576    0.00474    0.01291    0.00104      0.05485      0.02218      0.00104      0.05485      0.02218      
38700   0.07575    0.00474    0.01291    0.00104      0.05485      0.02218      0.00104      0.05485      0.02218      
38800   0.07574    0.00473    0.01290    0.00104      0.05485      0.02219      0.00104      0.05485      0.02219      
38900   0.07573    0.00473    0.01289    0.00104      0.05485      0.02220      0.00104      0.05485      0.02220      
39000   0.07572    0.00473    0.01289    0.00104      0.05484      0.02220      0.00104      0.05484      0.02220      
39100   0.07571    0.00473    0.01288    0.00104      0.05484      0.02220      0.00104      0.05484      0.02220      
39200   0.07570    0.00472    0.01288    0.00104      0.05484      0.02219      0.00104      0.05484      0.02219      
39300   0.07569    0.00472    0.01287    0.00104      0.05484      0.02218      0.00104      0.05484      0.02218      
39400   0.07568    0.00472    0.01286    0.00104      0.05484      0.02218      0.00104      0.05484      0.02218      
39500   0.07567    0.00472    0.01286    0.00103      0.05484      0.02218      0.00103      0.05484      0.02218      
39600   0.07566    0.00471    0.01285    0.00104      0.05484      0.02219      0.00104      0.05484      0.02219      
39700   0.07565    0.00471    0.01285    0.00104      0.05483      0.02219      0.00104      0.05483      0.02219      
39800   0.07564    0.00471    0.01284    0.00104      0.05483      0.02218      0.00104      0.05483      0.02218      
39900   0.07563    0.00471    0.01283    0.00104      0.05483      0.02218      0.00104      0.05483      0.02218      
40000   0.07562    0.00470    0.01283    0.00104      0.05483      0.02219      0.00104      0.05483      0.02219      
40100   0.07561    0.00470    0.01282    0.00104      0.05483      0.02219      0.00104      0.05483      0.02219      
40200   0.07560    0.00470    0.01281    0.00104      0.05483      0.02219      0.00104      0.05483      0.02219      
40300   0.07559    0.00470    0.01281    0.00104      0.05483      0.02220      0.00104      0.05483      0.02220      
40400   0.07558    0.00469    0.01280    0.00104      0.05483      0.02219      0.00104      0.05483      0.02219      
40500   0.07557    0.00469    0.01280    0.00104      0.05483      0.02218      0.00104      0.05483      0.02218      
40600   0.07556    0.00469    0.01279    0.00104      0.05483      0.02219      0.00104      0.05483      0.02219      
40700   0.07555    0.00468    0.01278    0.00104      0.05483      0.02217      0.00104      0.05483      0.02217      
40800   0.07554    0.00468    0.01278    0.00104      0.05483      0.02217      0.00104      0.05483      0.02217      
40900   0.07553    0.00468    0.01277    0.00104      0.05483      0.02217      0.00104      0.05483      0.02217      
41000   0.07552    0.00468    0.01276    0.00104      0.05483      0.02214      0.00104      0.05483      0.02214      
41100   0.07551    0.00467    0.01276    0.00104      0.05483      0.02213      0.00104      0.05483      0.02213      
41200   0.07550    0.00467    0.01275    0.00104      0.05483      0.02213      0.00104      0.05483      0.02213      
41300   0.07549    0.00467    0.01275    0.00104      0.05483      0.02212      0.00104      0.05483      0.02212      
41400   0.07548    0.00466    0.01274    0.00104      0.05482      0.02213      0.00104      0.05482      0.02213      
41500   0.07547    0.00466    0.01274    0.00104      0.05482      0.02213      0.00104      0.05482      0.02213      
41600   0.07546    0.00466    0.01273    0.00104      0.05482      0.02212      0.00104      0.05482      0.02212      
41700   0.07545    0.00466    0.01273    0.00104      0.05482      0.02210      0.00104      0.05482      0.02210      
41800   0.07544    0.00465    0.01272    0.00104      0.05482      0.02210      0.00104      0.05482      0.02210      
41900   0.07543    0.00465    0.01271    0.00104      0.05481      0.02211      0.00104      0.05481      0.02211      
42000   0.07542    0.00465    0.01271    0.00104      0.05481      0.02210      0.00104      0.05481      0.02210      
42100   0.07541    0.00465    0.01270    0.00104      0.05481      0.02210      0.00104      0.05481      0.02210      
42200   0.07540    0.00464    0.01270    0.00104      0.05481      0.02209      0.00104      0.05481      0.02209      
42300   0.07539    0.00464    0.01269    0.00104      0.05481      0.02209      0.00104      0.05481      0.02209      
42400   0.07538    0.00464    0.01269    0.00104      0.05481      0.02208      0.00104      0.05481      0.02208      
42500   0.07537    0.00464    0.01268    0.00104      0.05481      0.02209      0.00104      0.05481      0.02209      
42600   0.07536    0.00464    0.01268    0.00104      0.05480      0.02208      0.00104      0.05480      0.02208      
42700   0.07535    0.00463    0.01267    0.00104      0.05480      0.02208      0.00104      0.05480      0.02208      
42800   0.07535    0.00463    0.01267    0.00104      0.05480      0.02207      0.00104      0.05480      0.02207      
42900   0.07534    0.00463    0.01266    0.00104      0.05480      0.02207      0.00104      0.05480      0.02207      
43000   0.07533    0.00463    0.01266    0.00104      0.05480      0.02207      0.00104      0.05480      0.02207      
43100   0.07532    0.00463    0.01265    0.00104      0.05480      0.02208      0.00104      0.05480      0.02208      
43200   0.07531    0.00462    0.01265    0.00104      0.05479      0.02208      0.00104      0.05479      0.02208      
43300   0.07530    0.00462    0.01264    0.00104      0.05480      0.02207      0.00104      0.05480      0.02207      
43400   0.07529    0.00462    0.01264    0.00104      0.05479      0.02206      0.00104      0.05479      0.02206      
43500   0.07529    0.00462    0.01263    0.00104      0.05479      0.02206      0.00104      0.05479      0.02206      
43600   0.07528    0.00461    0.01263    0.00104      0.05479      0.02206      0.00104      0.05479      0.02206      
43700   0.07527    0.00461    0.01262    0.00104      0.05479      0.02206      0.00104      0.05479      0.02206      
43800   0.07526    0.00461    0.01262    0.00104      0.05479      0.02205      0.00104      0.05479      0.02205      
43900   0.07525    0.00461    0.01261    0.00104      0.05479      0.02206      0.00104      0.05479      0.02206      
44000   0.07525    0.00461    0.01261    0.00104      0.05479      0.02205      0.00104      0.05479      0.02205      
44100   0.07524    0.00460    0.01260    0.00104      0.05479      0.02207      0.00104      0.05479      0.02207      
44200   0.07523    0.00460    0.01260    0.00104      0.05478      0.02208      0.00104      0.05478      0.02208      
44300   0.07522    0.00460    0.01260    0.00104      0.05478      0.02207      0.00104      0.05478      0.02207      
44400   0.07522    0.00460    0.01259    0.00104      0.05478      0.02208      0.00104      0.05478      0.02208      
44500   0.07521    0.00460    0.01259    0.00104      0.05478      0.02208      0.00104      0.05478      0.02208      
44600   0.07520    0.00459    0.01258    0.00104      0.05478      0.02208      0.00104      0.05478      0.02208      
44700   0.07519    0.00459    0.01258    0.00104      0.05478      0.02208      0.00104      0.05478      0.02208      
44800   0.07519    0.00459    0.01257    0.00104      0.05478      0.02207      0.00104      0.05478      0.02207      
44900   0.07518    0.00459    0.01257    0.00104      0.05478      0.02206      0.00104      0.05478      0.02206      
45000   0.07517    0.00459    0.01256    0.00104      0.05478      0.02207      0.00104      0.05478      0.02207      
45100   0.07517    0.00458    0.01256    0.00104      0.05478      0.02208      0.00104      0.05478      0.02208      
45200   0.07516    0.00458    0.01255    0.00104      0.05478      0.02207      0.00104      0.05478      0.02207      
45300   0.07515    0.00458    0.01255    0.00104      0.05478      0.02207      0.00104      0.05478      0.02207      
45400   0.07515    0.00458    0.01254    0.00104      0.05478      0.02206      0.00104      0.05478      0.02206      
45500   0.07514    0.00458    0.01254    0.00104      0.05478      0.02207      0.00104      0.05478      0.02207      
45600   0.07513    0.00458    0.01254    0.00104      0.05478      0.02206      0.00104      0.05478      0.02206      
45700   0.07513    0.00457    0.01253    0.00104      0.05478      0.02206      0.00104      0.05478      0.02206      
45800   0.07512    0.00457    0.01253    0.00104      0.05478      0.02207      0.00104      0.05478      0.02207      
45900   0.07511    0.00457    0.01252    0.00104      0.05478      0.02205      0.00104      0.05478      0.02205      
46000   0.07510    0.00457    0.01252    0.00104      0.05478      0.02205      0.00104      0.05478      0.02205      
46100   0.07509    0.00457    0.01251    0.00104      0.05478      0.02205      0.00104      0.05478      0.02205      
46200   0.07509    0.00457    0.01250    0.00104      0.05478      0.02205      0.00104      0.05478      0.02205      
46300   0.07508    0.00456    0.01250    0.00104      0.05478      0.02204      0.00104      0.05478      0.02204      
46400   0.07507    0.00456    0.01249    0.00104      0.05477      0.02204      0.00104      0.05477      0.02204      
46500   0.07506    0.00456    0.01248    0.00104      0.05477      0.02204      0.00104      0.05477      0.02204      
46600   0.07505    0.00456    0.01248    0.00104      0.05478      0.02203      0.00104      0.05478      0.02203      
46700   0.07504    0.00456    0.01247    0.00104      0.05477      0.02202      0.00104      0.05477      0.02202      
46800   0.07503    0.00456    0.01247    0.00104      0.05478      0.02200      0.00104      0.05478      0.02200      
46900   0.07503    0.00455    0.01246    0.00104      0.05478      0.02199      0.00104      0.05478      0.02199      
47000   0.07502    0.00455    0.01245    0.00104      0.05478      0.02199      0.00104      0.05478      0.02199      
47100   0.07501    0.00455    0.01245    0.00104      0.05478      0.02198      0.00104      0.05478      0.02198      
47200   0.07500    0.00455    0.01244    0.00104      0.05477      0.02200      0.00104      0.05477      0.02200      
47300   0.07499    0.00455    0.01244    0.00104      0.05478      0.02198      0.00104      0.05478      0.02198      
47400   0.07499    0.00454    0.01243    0.00104      0.05477      0.02198      0.00104      0.05477      0.02198      
47500   0.07498    0.00454    0.01243    0.00104      0.05477      0.02199      0.00104      0.05477      0.02199      
47600   0.07497    0.00454    0.01242    0.00104      0.05477      0.02198      0.00104      0.05477      0.02198      
47700   0.07496    0.00454    0.01242    0.00104      0.05477      0.02198      0.00104      0.05477      0.02198      
47800   0.07495    0.00454    0.01241    0.00104      0.05477      0.02197      0.00104      0.05477      0.02197      
47900   0.07495    0.00454    0.01240    0.00104      0.05477      0.02196      0.00104      0.05477      0.02196      
48000   0.07494    0.00453    0.01240    0.00103      0.05478      0.02196      0.00103      0.05478      0.02196      
48100   0.07493    0.00453    0.01239    0.00104      0.05477      0.02197      0.00104      0.05477      0.02197      
48200   0.07492    0.00453    0.01239    0.00104      0.05478      0.02195      0.00104      0.05478      0.02195      
48300   0.07491    0.00453    0.01238    0.00104      0.05478      0.02195      0.00104      0.05478      0.02195      
48400   0.07491    0.00453    0.01237    0.00104      0.05477      0.02195      0.00104      0.05477      0.02195      
48500   0.07490    0.00452    0.01237    0.00104      0.05478      0.02194      0.00104      0.05478      0.02194      
48600   0.07489    0.00452    0.01236    0.00104      0.05477      0.02194      0.00104      0.05477      0.02194      
48700   0.07488    0.00452    0.01236    0.00104      0.05477      0.02195      0.00104      0.05477      0.02195      
48800   0.07487    0.00452    0.01235    0.00104      0.05477      0.02194      0.00104      0.05477      0.02194      
48900   0.07486    0.00451    0.01235    0.00104      0.05477      0.02192      0.00104      0.05477      0.02192      
49000   0.07485    0.00451    0.01234    0.00104      0.05478      0.02191      0.00104      0.05478      0.02191      
49100   0.07484    0.00451    0.01233    0.00103      0.05477      0.02191      0.00103      0.05477      0.02191      
49200   0.07484    0.00451    0.01233    0.00104      0.05477      0.02190      0.00104      0.05477      0.02190      
49300   0.07483    0.00451    0.01232    0.00104      0.05477      0.02190      0.00104      0.05477      0.02190      
49400   0.07482    0.00450    0.01232    0.00104      0.05477      0.02190      0.00104      0.05477      0.02190      
49500   0.07481    0.00450    0.01231    0.00104      0.05477      0.02191      0.00104      0.05477      0.02191      
49600   0.07480    0.00450    0.01231    0.00104      0.05477      0.02190      0.00104      0.05477      0.02190      
49700   0.07479    0.00450    0.01230    0.00104      0.05477      0.02191      0.00104      0.05477      0.02191      
49800   0.07479    0.00449    0.01230    0.00104      0.05477      0.02192      0.00104      0.05477      0.02192      
49900   0.07478    0.00449    0.01229    0.00104      0.05477      0.02191      0.00104      0.05477      0.02191      
50000   0.07477    0.00449    0.01229    0.00104      0.05477      0.02191      0.00104      0.05477      0.02191      
50100   0.07476    0.00449    0.01228    0.00104      0.05476      0.02191      0.00104      0.05476      0.02191      
50200   0.07476    0.00449    0.01228    0.00104      0.05476      0.02191      0.00104      0.05476      0.02191      
50300   0.07475    0.00448    0.01227    0.00104      0.05476      0.02191      0.00104      0.05476      0.02191      
50400   0.07474    0.00448    0.01227    0.00104      0.05476      0.02191      0.00104      0.05476      0.02191      
50500   0.07474    0.00448    0.01227    0.00104      0.05476      0.02191      0.00104      0.05476      0.02191      
50600   0.07473    0.00448    0.01226    0.00104      0.05476      0.02191      0.00104      0.05476      0.02191      
50700   0.07472    0.00448    0.01226    0.00104      0.05476      0.02191      0.00104      0.05476      0.02191      
50800   0.07472    0.00447    0.01225    0.00104      0.05476      0.02190      0.00104      0.05476      0.02190      
50900   0.07471    0.00447    0.01225    0.00104      0.05476      0.02190      0.00104      0.05476      0.02190      
51000   0.07470    0.00447    0.01224    0.00104      0.05476      0.02190      0.00104      0.05476      0.02190      
51100   0.07469    0.00447    0.01224    0.00104      0.05476      0.02189      0.00104      0.05476      0.02189      
51200   0.07468    0.00446    0.01223    0.00104      0.05476      0.02189      0.00104      0.05476      0.02189      
51300   0.07468    0.00446    0.01222    0.00104      0.05476      0.02190      0.00104      0.05476      0.02190      
51400   0.07467    0.00446    0.01222    0.00104      0.05476      0.02190      0.00104      0.05476      0.02190      
51500   0.07466    0.00446    0.01221    0.00104      0.05476      0.02192      0.00104      0.05476      0.02192      
51600   0.07465    0.00445    0.01221    0.00104      0.05476      0.02192      0.00104      0.05476      0.02192      
51700   0.07464    0.00445    0.01220    0.00104      0.05476      0.02192      0.00104      0.05476      0.02192      
51800   0.07464    0.00445    0.01220    0.00104      0.05476      0.02192      0.00104      0.05476      0.02192      
51900   0.07463    0.00445    0.01219    0.00104      0.05476      0.02192      0.00104      0.05476      0.02192      
52000   0.07462    0.00444    0.01219    0.00104      0.05476      0.02193      0.00104      0.05476      0.02193      
52100   0.07461    0.00444    0.01218    0.00104      0.05476      0.02192      0.00104      0.05476      0.02192      
52200   0.07461    0.00444    0.01218    0.00104      0.05476      0.02193      0.00104      0.05476      0.02193      
52300   0.07460    0.00444    0.01218    0.00104      0.05476      0.02192      0.00104      0.05476      0.02192      
52400   0.07459    0.00443    0.01217    0.00104      0.05476      0.02193      0.00104      0.05476      0.02193      
52500   0.07459    0.00443    0.01217    0.00104      0.05476      0.02193      0.00104      0.05476      0.02193      
52600   0.07458    0.00443    0.01216    0.00104      0.05476      0.02193      0.00104      0.05476      0.02193      
52700   0.07458    0.00443    0.01216    0.00104      0.05476      0.02193      0.00104      0.05476      0.02193      
52800   0.07457    0.00442    0.01216    0.00104      0.05476      0.02193      0.00104      0.05476      0.02193      
52900   0.07456    0.00442    0.01215    0.00104      0.05476      0.02192      0.00104      0.05476      0.02192      
53000   0.07456    0.00442    0.01215    0.00104      0.05476      0.02192      0.00104      0.05476      0.02192      
53100   0.07455    0.00442    0.01214    0.00104      0.05476      0.02192      0.00104      0.05476      0.02192      
53200   0.07455    0.00442    0.01214    0.00104      0.05476      0.02194      0.00104      0.05476      0.02194      
53300   0.07454    0.00441    0.01214    0.00104      0.05476      0.02194      0.00104      0.05476      0.02194      
53400   0.07454    0.00441    0.01213    0.00104      0.05476      0.02193      0.00104      0.05476      0.02193      
53500   0.07453    0.00441    0.01213    0.00104      0.05476      0.02194      0.00104      0.05476      0.02194      
53600   0.07453    0.00441    0.01213    0.00104      0.05475      0.02195      0.00104      0.05475      0.02195      
53700   0.07452    0.00441    0.01213    0.00104      0.05475      0.02196      0.00104      0.05475      0.02196      
53800   0.07452    0.00441    0.01212    0.00104      0.05475      0.02196      0.00104      0.05475      0.02196      
53900   0.07451    0.00440    0.01212    0.00104      0.05475      0.02197      0.00104      0.05475      0.02197      
54000   0.07451    0.00440    0.01212    0.00104      0.05475      0.02198      0.00104      0.05475      0.02198      
54100   0.07450    0.00440    0.01211    0.00104      0.05475      0.02198      0.00104      0.05475      0.02198      
54200   0.07450    0.00440    0.01211    0.00104      0.05475      0.02198      0.00104      0.05475      0.02198      
54300   0.07449    0.00440    0.01211    0.00104      0.05475      0.02198      0.00104      0.05475      0.02198      
54400   0.07449    0.00440    0.01210    0.00104      0.05475      0.02198      0.00104      0.05475      0.02198      
54500   0.07448    0.00439    0.01210    0.00104      0.05475      0.02198      0.00104      0.05475      0.02198      
54600   0.07448    0.00439    0.01210    0.00104      0.05475      0.02198      0.00104      0.05475      0.02198      
54700   0.07447    0.00439    0.01210    0.00104      0.05475      0.02199      0.00104      0.05475      0.02199      
54800   0.07447    0.00439    0.01209    0.00104      0.05475      0.02200      0.00104      0.05475      0.02200      
54900   0.07446    0.00439    0.01209    0.00104      0.05475      0.02199      0.00104      0.05475      0.02199      
55000   0.07446    0.00439    0.01209    0.00104      0.05475      0.02199      0.00104      0.05475      0.02199      
55100   0.07445    0.00439    0.01208    0.00104      0.05474      0.02200      0.00104      0.05474      0.02200      
55200   0.07445    0.00438    0.01208    0.00104      0.05474      0.02200      0.00104      0.05474      0.02200      
55300   0.07444    0.00438    0.01208    0.00104      0.05474      0.02201      0.00104      0.05474      0.02201      
55400   0.07444    0.00438    0.01208    0.00104      0.05474      0.02201      0.00104      0.05474      0.02201      
55500   0.07443    0.00438    0.01207    0.00104      0.05474      0.02202      0.00104      0.05474      0.02202      
55600   0.07443    0.00438    0.01207    0.00104      0.05474      0.02202      0.00104      0.05474      0.02202      
55700   0.07442    0.00438    0.01207    0.00104      0.05474      0.02202      0.00104      0.05474      0.02202      
55800   0.07442    0.00438    0.01206    0.00104      0.05474      0.02203      0.00104      0.05474      0.02203      
55900   0.07442    0.00437    0.01206    0.00104      0.05474      0.02203      0.00104      0.05474      0.02203      
56000   0.07441    0.00437    0.01206    0.00104      0.05474      0.02205      0.00104      0.05474      0.02205      
56100   0.07441    0.00437    0.01206    0.00104      0.05473      0.02205      0.00104      0.05473      0.02205      
56200   0.07440    0.00437    0.01205    0.00104      0.05473      0.02205      0.00104      0.05473      0.02205      
56300   0.07440    0.00437    0.01205    0.00104      0.05473      0.02205      0.00104      0.05473      0.02205      
56400   0.07439    0.00437    0.01205    0.00104      0.05473      0.02205      0.00104      0.05473      0.02205      
56500   0.07439    0.00436    0.01205    0.00104      0.05473      0.02206      0.00104      0.05473      0.02206      
56600   0.07438    0.00436    0.01204    0.00104      0.05473      0.02206      0.00104      0.05473      0.02206      
56700   0.07438    0.00436    0.01204    0.00104      0.05473      0.02206      0.00104      0.05473      0.02206      
56800   0.07437    0.00436    0.01204    0.00104      0.05473      0.02207      0.00104      0.05473      0.02207      
56900   0.07437    0.00436    0.01203    0.00104      0.05473      0.02207      0.00104      0.05473      0.02207      
57000   0.07436    0.00436    0.01203    0.00104      0.05473      0.02206      0.00104      0.05473      0.02206      
57100   0.07436    0.00436    0.01203    0.00104      0.05473      0.02207      0.00104      0.05473      0.02207      
57200   0.07435    0.00435    0.01202    0.00104      0.05472      0.02207      0.00104      0.05472      0.02207      
57300   0.07434    0.00435    0.01202    0.00104      0.05472      0.02207      0.00104      0.05472      0.02207      
57400   0.07433    0.00435    0.01201    0.00104      0.05472      0.02208      0.00104      0.05472      0.02208      
57500   0.07432    0.00435    0.01201    0.00104      0.05472      0.02208      0.00104      0.05472      0.02208      
57600   0.07431    0.00434    0.01200    0.00104      0.05472      0.02209      0.00104      0.05472      0.02209      
57700   0.07430    0.00434    0.01199    0.00104      0.05472      0.02209      0.00104      0.05472      0.02209      
57800   0.07429    0.00434    0.01199    0.00104      0.05472      0.02210      0.00104      0.05472      0.02210      
57900   0.07428    0.00433    0.01198    0.00104      0.05472      0.02210      0.00104      0.05472      0.02210      
58000   0.07427    0.00433    0.01197    0.00104      0.05472      0.02210      0.00104      0.05472      0.02210      
58100   0.07426    0.00433    0.01197    0.00104      0.05472      0.02211      0.00104      0.05472      0.02211      
58200   0.07425    0.00433    0.01196    0.00104      0.05472      0.02211      0.00104      0.05472      0.02211      
58300   0.07425    0.00432    0.01196    0.00104      0.05472      0.02212      0.00104      0.05472      0.02212      
58400   0.07424    0.00432    0.01195    0.00104      0.05472      0.02211      0.00104      0.05472      0.02211      
58500   0.07424    0.00432    0.01195    0.00104      0.05472      0.02211      0.00104      0.05472      0.02211      
58600   0.07423    0.00432    0.01195    0.00104      0.05472      0.02211      0.00104      0.05472      0.02211      
58700   0.07423    0.00432    0.01194    0.00104      0.05472      0.02211      0.00104      0.05472      0.02211      
58800   0.07422    0.00431    0.01194    0.00104      0.05472      0.02211      0.00104      0.05472      0.02211      
58900   0.07422    0.00431    0.01194    0.00104      0.05471      0.02212      0.00104      0.05471      0.02212      
59000   0.07421    0.00431    0.01194    0.00104      0.05471      0.02212      0.00104      0.05471      0.02212      
59100   0.07421    0.00431    0.01193    0.00104      0.05471      0.02211      0.00104      0.05471      0.02211      
59200   0.07420    0.00431    0.01193    0.00104      0.05471      0.02211      0.00104      0.05471      0.02211      
59300   0.07420    0.00431    0.01193    0.00104      0.05471      0.02211      0.00104      0.05471      0.02211      
59400   0.07419    0.00430    0.01193    0.00104      0.05471      0.02211      0.00104      0.05471      0.02211      
59500   0.07419    0.00430    0.01192    0.00104      0.05471      0.02211      0.00104      0.05471      0.02211      
59600   0.07418    0.00430    0.01192    0.00104      0.05471      0.02212      0.00104      0.05471      0.02212      
59700   0.07418    0.00430    0.01192    0.00104      0.05471      0.02210      0.00104      0.05471      0.02210      
59800   0.07418    0.00430    0.01192    0.00104      0.05471      0.02211      0.00104      0.05471      0.02211      
59900   0.07417    0.00430    0.01191    0.00104      0.05471      0.02210      0.00104      0.05471      0.02210      
60000   0.07417    0.00430    0.01191    0.00104      0.05471      0.02210      0.00104      0.05471      0.02210      
60100   0.07416    0.00429    0.01191    0.00104      0.05471      0.02211      0.00104      0.05471      0.02211      
60200   0.07416    0.00429    0.01191    0.00104      0.05471      0.02211      0.00104      0.05471      0.02211      
60300   0.07416    0.00429    0.01190    0.00104      0.05471      0.02211      0.00104      0.05471      0.02211      
60400   0.07415    0.00429    0.01190    0.00104      0.05471      0.02211      0.00104      0.05471      0.02211      
60500   0.07415    0.00429    0.01190    0.00104      0.05471      0.02210      0.00104      0.05471      0.02210      
60600   0.07414    0.00429    0.01189    0.00104      0.05471      0.02212      0.00104      0.05471      0.02212      
60700   0.07414    0.00429    0.01189    0.00104      0.05471      0.02212      0.00104      0.05471      0.02212      
60800   0.07413    0.00428    0.01189    0.00104      0.05471      0.02212      0.00104      0.05471      0.02212      
60900   0.07413    0.00428    0.01189    0.00104      0.05471      0.02212      0.00104      0.05471      0.02212      
61000   0.07412    0.00428    0.01188    0.00104      0.05471      0.02211      0.00104      0.05471      0.02211      
61100   0.07412    0.00428    0.01188    0.00104      0.05471      0.02211      0.00104      0.05471      0.02211      
61200   0.07411    0.00428    0.01188    0.00104      0.05471      0.02209      0.00104      0.05471      0.02209      
61300   0.07411    0.00428    0.01187    0.00104      0.05471      0.02209      0.00104      0.05471      0.02209      
61400   0.07411    0.00427    0.01187    0.00104      0.05472      0.02208      0.00104      0.05472      0.02208      
61500   0.07410    0.00427    0.01187    0.00104      0.05472      0.02208      0.00104      0.05472      0.02208      
61600   0.07410    0.00427    0.01186    0.00104      0.05472      0.02208      0.00104      0.05472      0.02208      
[...]
83800   0.07345    0.00407    0.01155    0.00103      0.05461      0.02192      0.00103      0.05461      0.02192      
83900   0.07345    0.00407    0.01155    0.00103      0.05461      0.02191      0.00103      0.05461      0.02191      
84000   0.07345    0.00407    0.01155    0.00103      0.05461      0.02191      0.00103      0.05461      0.02191      
84100   0.07344    0.00407    0.01155    0.00103      0.05461      0.02191      0.00103      0.05461      0.02191      
84200   0.07344    0.00407    0.01154    0.00103      0.05461      0.02191      0.00103      0.05461      0.02191      
84300   0.07344    0.00407    0.01154    0.00103      0.05461      0.02191      0.00103      0.05461      0.02191      
84400   0.07344    0.00407    0.01154    0.00103      0.05461      0.02192      0.00103      0.05461      0.02192      
84500   0.07344    0.00407    0.01154    0.00103      0.05461      0.02191      0.00103      0.05461      0.02191      
84600   0.07344    0.00407    0.01154    0.00103      0.05461      0.02191      0.00103      0.05461      0.02191      
84700   0.07344    0.00407    0.01154    0.00103      0.05461      0.02192      0.00103      0.05461      0.02192      
84800   0.07343    0.00406    0.01154    0.00103      0.05461      0.02191      0.00103      0.05461      0.02191      
84900   0.07343    0.00406    0.01154    0.00103      0.05460      0.02192      0.00103      0.05460      0.02192      
85000   0.07343    0.00406    0.01154    0.00103      0.05461      0.02191      0.00103      0.05461      0.02191      
85100   0.07343    0.00406    0.01154    0.00103      0.05461      0.02190      0.00103      0.05461      0.02190      
85200   0.07343    0.00406    0.01154    0.00103      0.05461      0.02190      0.00103      0.05461      0.02190      
85300   0.07343    0.00406    0.01154    0.00103      0.05460      0.02190      0.00103      0.05460      0.02190      
85400   0.07342    0.00406    0.01154    0.00103      0.05460      0.02190      0.00103      0.05460      0.02190      
85500   0.07342    0.00406    0.01154    0.00103      0.05460      0.02189      0.00103      0.05460      0.02189      
85600   0.07342    0.00406    0.01154    0.00103      0.05460      0.02189      0.00103      0.05460      0.02189      
85700   0.07342    0.00406    0.01154    0.00103      0.05460      0.02189      0.00103      0.05460      0.02189      
85800   0.07342    0.00406    0.01154    0.00103      0.05460      0.02189      0.00103      0.05460      0.02189      
85900   0.07342    0.00406    0.01153    0.00103      0.05460      0.02189      0.00103      0.05460      0.02189      
86000   0.07341    0.00406    0.01153    0.00103      0.05460      0.02190      0.00103      0.05460      0.02190      
86100   0.07341    0.00406    0.01153    0.00103      0.05460      0.02189      0.00103      0.05460      0.02189      
86200   0.07341    0.00406    0.01153    0.00103      0.05460      0.02189      0.00103      0.05460      0.02189      
86300   0.07341    0.00406    0.01153    0.00103      0.05460      0.02189      0.00103      0.05460      0.02189      
86400   0.07341    0.00406    0.01153    0.00103      0.05460      0.02189      0.00103      0.05460      0.02189      
86500   0.07341    0.00406    0.01153    0.00103      0.05460      0.02189      0.00103      0.05460      0.02189      
86600   0.07340    0.00406    0.01153    0.00103      0.05460      0.02189      0.00103      0.05460      0.02189      
86700   0.07340    0.00406    0.01153    0.00103      0.05460      0.02189      0.00103      0.05460      0.02189      
86800   0.07340    0.00406    0.01153    0.00103      0.05460      0.02189      0.00103      0.05460      0.02189      
86900   0.07340    0.00405    0.01153    0.00103      0.05460      0.02188      0.00103      0.05460      0.02188      
87000   0.07340    0.00405    0.01153    0.00103      0.05460      0.02189      0.00103      0.05460      0.02189      
87100   0.07340    0.00405    0.01153    0.00103      0.05460      0.02188      0.00103      0.05460      0.02188      
87200   0.07340    0.00405    0.01153    0.00103      0.05460      0.02188      0.00103      0.05460      0.02188      
87300   0.07339    0.00405    0.01152    0.00103      0.05460      0.02188      0.00103      0.05460      0.02188      
87400   0.07339    0.00405    0.01152    0.00103      0.05460      0.02188      0.00103      0.05460      0.02188      
87500   0.07339    0.00405    0.01152    0.00103      0.05460      0.02188      0.00103      0.05460      0.02188      
87600   0.07339    0.00405    0.01152    0.00103      0.05460      0.02188      0.00103      0.05460      0.02188      
87700   0.07339    0.00405    0.01152    0.00103      0.05460      0.02188      0.00103      0.05460      0.02188      
87800   0.07339    0.00405    0.01152    0.00103      0.05460      0.02188      0.00103      0.05460      0.02188      
87900   0.07338    0.00405    0.01152    0.00103      0.05460      0.02188      0.00103      0.05460      0.02188      
88000   0.07338    0.00405    0.01152    0.00103      0.05460      0.02189      0.00103      0.05460      0.02189      
88100   0.07338    0.00405    0.01152    0.00103      0.05459      0.02189      0.00103      0.05459      0.02189      
88200   0.07338    0.00405    0.01152    0.00103      0.05459      0.02189      0.00103      0.05459      0.02189      
88300   0.07338    0.00405    0.01152    0.00103      0.05459      0.02189      0.00103      0.05459      0.02189      
88400   0.07338    0.00405    0.01152    0.00103      0.05459      0.02189      0.00103      0.05459      0.02189      
88500   0.07338    0.00405    0.01152    0.00103      0.05459      0.02189      0.00103      0.05459      0.02189      
88600   0.07337    0.00405    0.01152    0.00103      0.05459      0.02189      0.00103      0.05459      0.02189      
88700   0.07337    0.00404    0.01151    0.00103      0.05459      0.02189      0.00103      0.05459      0.02189      
88800   0.07337    0.00404    0.01151    0.00103      0.05459      0.02188      0.00103      0.05459      0.02188      
88900   0.07337    0.00404    0.01151    0.00103      0.05459      0.02188      0.00103      0.05459      0.02188      
89000   0.07337    0.00404    0.01151    0.00103      0.05459      0.02188      0.00103      0.05459      0.02188      
89100   0.07337    0.00404    0.01151    0.00103      0.05459      0.02188      0.00103      0.05459      0.02188      
89200   0.07336    0.00404    0.01151    0.00103      0.05459      0.02187      0.00103      0.05459      0.02187      
89300   0.07336    0.00404    0.01151    0.00103      0.05459      0.02187      0.00103      0.05459      0.02187      
89400   0.07336    0.00404    0.01151    0.00103      0.05459      0.02187      0.00103      0.05459      0.02187      
89500   0.07336    0.00404    0.01151    0.00103      0.05459      0.02186      0.00103      0.05459      0.02186      
89600   0.07336    0.00404    0.01151    0.00103      0.05459      0.02186      0.00103      0.05459      0.02186      
89700   0.07336    0.00404    0.01151    0.00103      0.05459      0.02186      0.00103      0.05459      0.02186      
89800   0.07335    0.00404    0.01151    0.00103      0.05459      0.02186      0.00103      0.05459      0.02186      
89900   0.07335    0.00404    0.01151    0.00103      0.05459      0.02185      0.00103      0.05459      0.02185      
90000   0.07335    0.00404    0.01151    0.00103      0.05459      0.02186      0.00103      0.05459      0.02186      
90100   0.07335    0.00404    0.01150    0.00103      0.05459      0.02186      0.00103      0.05459      0.02186      
90200   0.07335    0.00404    0.01150    0.00103      0.05459      0.02186      0.00103      0.05459      0.02186      
90300   0.07335    0.00404    0.01150    0.00103      0.05459      0.02185      0.00103      0.05459      0.02185      
90400   0.07335    0.00404    0.01150    0.00103      0.05459      0.02185      0.00103      0.05459      0.02185      
90500   0.07334    0.00403    0.01150    0.00103      0.05459      0.02185      0.00103      0.05459      0.02185      
90600   0.07334    0.00403    0.01150    0.00103      0.05459      0.02185      0.00103      0.05459      0.02185      
90700   0.07334    0.00403    0.01150    0.00103      0.05459      0.02185      0.00103      0.05459      0.02185      
90800   0.07334    0.00403    0.01150    0.00103      0.05459      0.02185      0.00103      0.05459      0.02185      
90900   0.07334    0.00403    0.01150    0.00103      0.05459      0.02185      0.00103      0.05459      0.02185      
91000   0.07334    0.00403    0.01150    0.00103      0.05459      0.02185      0.00103      0.05459      0.02185      
91100   0.07334    0.00403    0.01150    0.00103      0.05459      0.02185      0.00103      0.05459      0.02185      
91200   0.07333    0.00403    0.01150    0.00103      0.05459      0.02185      0.00103      0.05459      0.02185      
91300   0.07333    0.00403    0.01150    0.00103      0.05459      0.02186      0.00103      0.05459      0.02186      
91400   0.07333    0.00403    0.01150    0.00103      0.05459      0.02186      0.00103      0.05459      0.02186      
91500   0.07333    0.00403    0.01149    0.00103      0.05459      0.02185      0.00103      0.05459      0.02185      
91600   0.07333    0.00403    0.01149    0.00103      0.05459      0.02186      0.00103      0.05459      0.02186      
91700   0.07332    0.00403    0.01149    0.00103      0.05459      0.02185      0.00103      0.05459      0.02185      
91800   0.07332    0.00403    0.01149    0.00103      0.05459      0.02185      0.00103      0.05459      0.02185      
91900   0.07332    0.00403    0.01149    0.00103      0.05459      0.02184      0.00103      0.05459      0.02184      
92000   0.07332    0.00402    0.01149    0.00103      0.05459      0.02184      0.00103      0.05459      0.02184      
92100   0.07332    0.00402    0.01149    0.00103      0.05459      0.02184      0.00103      0.05459      0.02184      
92200   0.07331    0.00402    0.01149    0.00103      0.05459      0.02183      0.00103      0.05459      0.02183      
92300   0.07331    0.00402    0.01149    0.00103      0.05459      0.02183      0.00103      0.05459      0.02183      
92400   0.07331    0.00402    0.01148    0.00103      0.05459      0.02183      0.00103      0.05459      0.02183      
92500   0.07331    0.00402    0.01148    0.00103      0.05459      0.02183      0.00103      0.05459      0.02183      
92600   0.07331    0.00402    0.01148    0.00103      0.05459      0.02183      0.00103      0.05459      0.02183      
92700   0.07330    0.00402    0.01148    0.00103      0.05459      0.02183      0.00103      0.05459      0.02183      
92800   0.07330    0.00402    0.01148    0.00103      0.05459      0.02183      0.00103      0.05459      0.02183      
92900   0.07330    0.00402    0.01148    0.00103      0.05459      0.02183      0.00103      0.05459      0.02183      
93000   0.07330    0.00402    0.01148    0.00103      0.05459      0.02183      0.00103      0.05459      0.02183      
93100   0.07330    0.00402    0.01148    0.00103      0.05459      0.02182      0.00103      0.05459      0.02182      
93200   0.07330    0.00402    0.01148    0.00103      0.05459      0.02182      0.00103      0.05459      0.02182      
93300   0.07330    0.00401    0.01148    0.00103      0.05459      0.02182      0.00103      0.05459      0.02182      
93400   0.07329    0.00401    0.01148    0.00103      0.05459      0.02182      0.00103      0.05459      0.02182      
93500   0.07329    0.00401    0.01148    0.00103      0.05459      0.02181      0.00103      0.05459      0.02181      
93600   0.07329    0.00401    0.01148    0.00103      0.05459      0.02181      0.00103      0.05459      0.02181      
93700   0.07329    0.00401    0.01147    0.00103      0.05459      0.02181      0.00103      0.05459      0.02181      
93800   0.07329    0.00401    0.01147    0.00103      0.05459      0.02181      0.00103      0.05459      0.02181      
93900   0.07329    0.00401    0.01147    0.00103      0.05459      0.02182      0.00103      0.05459      0.02182      
94000   0.07328    0.00401    0.01147    0.00103      0.05459      0.02182      0.00103      0.05459      0.02182      
94100   0.07328    0.00401    0.01147    0.00103      0.05459      0.02182      0.00103      0.05459      0.02182      
94200   0.07328    0.00401    0.01147    0.00103      0.05459      0.02181      0.00103      0.05459      0.02181      
94300   0.07328    0.00401    0.01147    0.00103      0.05459      0.02181      0.00103      0.05459      0.02181      
94400   0.07328    0.00401    0.01147    0.00103      0.05459      0.02181      0.00103      0.05459      0.02181      
94500   0.07328    0.00401    0.01147    0.00103      0.05459      0.02181      0.00103      0.05459      0.02181      
94600   0.07328    0.00401    0.01147    0.00103      0.05459      0.02181      0.00103      0.05459      0.02181      
94700   0.07327    0.00401    0.01147    0.00103      0.05459      0.02181      0.00103      0.05459      0.02181      
94800   0.07327    0.00401    0.01147    0.00103      0.05459      0.02181      0.00103      0.05459      0.02181      
94900   0.07327    0.00401    0.01147    0.00103      0.05458      0.02181      0.00103      0.05458      0.02181      
95000   0.07327    0.00401    0.01147    0.00103      0.05458      0.02181      0.00103      0.05458      0.02181      
95100   0.07327    0.00401    0.01147    0.00103      0.05458      0.02181      0.00103      0.05458      0.02181      
95200   0.07327    0.00401    0.01146    0.00103      0.05458      0.02180      0.00103      0.05458      0.02180      
95300   0.07327    0.00401    0.01146    0.00103      0.05458      0.02181      0.00103      0.05458      0.02181      
95400   0.07326    0.00401    0.01146    0.00103      0.05458      0.02181      0.00103      0.05458      0.02181      
95500   0.07326    0.00401    0.01146    0.00103      0.05458      0.02181      0.00103      0.05458      0.02181      
95600   0.07326    0.00401    0.01146    0.00103      0.05458      0.02181      0.00103      0.05458      0.02181      
95700   0.07326    0.00401    0.01146    0.00103      0.05458      0.02181      0.00103      0.05458      0.02181      
95800   0.07326    0.00400    0.01146    0.00103      0.05458      0.02181      0.00103      0.05458      0.02181      
95900   0.07326    0.00400    0.01146    0.00103      0.05458      0.02181      0.00103      0.05458      0.02181      
96000   0.07326    0.00400    0.01146    0.00103      0.05458      0.02180      0.00103      0.05458      0.02180      
96100   0.07325    0.00400    0.01146    0.00103      0.05458      0.02180      0.00103      0.05458      0.02180      
96200   0.07325    0.00400    0.01146    0.00103      0.05458      0.02180      0.00103      0.05458      0.02180      
96300   0.07325    0.00400    0.01146    0.00103      0.05458      0.02179      0.00103      0.05458      0.02179      
96400   0.07325    0.00400    0.01146    0.00103      0.05458      0.02179      0.00103      0.05458      0.02179      
96500   0.07325    0.00400    0.01146    0.00103      0.05458      0.02179      0.00103      0.05458      0.02179      
96600   0.07325    0.00400    0.01146    0.00103      0.05458      0.02179      0.00103      0.05458      0.02179      
96700   0.07324    0.00400    0.01146    0.00103      0.05458      0.02179      0.00103      0.05458      0.02179      
96800   0.07324    0.00400    0.01145    0.00103      0.05458      0.02179      0.00103      0.05458      0.02179      
96900   0.07324    0.00400    0.01145    0.00103      0.05458      0.02179      0.00103      0.05458      0.02179      
97000   0.07324    0.00400    0.01145    0.00103      0.05458      0.02179      0.00103      0.05458      0.02179      
97100   0.07324    0.00400    0.01145    0.00103      0.05458      0.02179      0.00103      0.05458      0.02179      
97200   0.07324    0.00400    0.01145    0.00103      0.05458      0.02179      0.00103      0.05458      0.02179      
97300   0.07323    0.00400    0.01145    0.00103      0.05458      0.02179      0.00103      0.05458      0.02179      
97400   0.07323    0.00400    0.01145    0.00103      0.05458      0.02179      0.00103      0.05458      0.02179      
97500   0.07323    0.00400    0.01145    0.00103      0.05457      0.02180      0.00103      0.05457      0.02180      
97600   0.07323    0.00400    0.01145    0.00103      0.05457      0.02180      0.00103      0.05457      0.02180      
97700   0.07323    0.00400    0.01145    0.00103      0.05457      0.02179      0.00103      0.05457      0.02179      
97800   0.07323    0.00399    0.01145    0.00103      0.05457      0.02179      0.00103      0.05457      0.02179      
97900   0.07322    0.00399    0.01145    0.00103      0.05457      0.02179      0.00103      0.05457      0.02179      
98000   0.07322    0.00399    0.01145    0.00103      0.05457      0.02180      0.00103      0.05457      0.02180      
98100   0.07322    0.00399    0.01144    0.00103      0.05457      0.02180      0.00103      0.05457      0.02180      
98200   0.07322    0.00399    0.01144    0.00103      0.05457      0.02180      0.00103      0.05457      0.02180      
98300   0.07322    0.00399    0.01144    0.00103      0.05457      0.02180      0.00103      0.05457      0.02180      
98400   0.07322    0.00399    0.01144    0.00103      0.05457      0.02181      0.00103      0.05457      0.02181      
98500   0.07321    0.00399    0.01144    0.00103      0.05457      0.02181      0.00103      0.05457      0.02181      
98600   0.07321    0.00399    0.01144    0.00103      0.05457      0.02181      0.00103      0.05457      0.02181      
98700   0.07321    0.00399    0.01144    0.00103      0.05457      0.02181      0.00103      0.05457      0.02181      
98800   0.07321    0.00399    0.01144    0.00103      0.05457      0.02181      0.00103      0.05457      0.02181      
98900   0.07321    0.00399    0.01144    0.00103      0.05457      0.02181      0.00103      0.05457      0.02181      
99000   0.07321    0.00399    0.01144    0.00103      0.05457      0.02181      0.00103      0.05457      0.02181      
99100   0.07320    0.00399    0.01144    0.00103      0.05457      0.02181      0.00103      0.05457      0.02181      
99200   0.07320    0.00399    0.01144    0.00103      0.05457      0.02181      0.00103      0.05457      0.02181      
99300   0.07320    0.00399    0.01144    0.00103      0.05457      0.02181      0.00103      0.05457      0.02181      
99400   0.07320    0.00398    0.01143    0.00103      0.05457      0.02181      0.00103      0.05457      0.02181      
99500   0.07320    0.00398    0.01143    0.00103      0.05457      0.02181      0.00103      0.05457      0.02181      
99600   0.07320    0.00398    0.01143    0.00103      0.05457      0.02180      0.00103      0.05457      0.02180      
99700   0.07319    0.00398    0.01143    0.00103      0.05457      0.02180      0.00103      0.05457      0.02180      
99800   0.07319    0.00398    0.01143    0.00103      0.05457      0.02179      0.00103      0.05457      0.02179      
99900   0.07319    0.00398    0.01143    0.00103      0.05457      0.02179      0.00103      0.05457      0.02179      
100000  0.07318    0.00398    0.01143    0.00103      0.05457      0.02179      0.00103      0.05457      0.02179      

---------------------------------------------------------------
Time used for training = 1727.397705 s.
---------------------------------------------------------------


---------------------------------------------------------------
Finished running nep.
---------------------------------------------------------------

