8000
Time=19999.99999999 pbc="T T T" Lattice="53.61360367 -4.73219647 0.01658471 -4.64949898 53.58938747 -0.00024210 0.02452864 -0.01181447 56.03995493" energy=-35741.54531366 virial="-231.68243238 10020.51550744 -2.73277631 10020.51550744 -223.98168768 16.13076785 -2.73277631 16.13076785 -275.03188375" stress="-0.00015563 0.06271736 -0.00001710 0.06271736 -0.00010744 0.00010096 -0.00001710 0.00010096 -0.00042695" Properties=species:S:1:pos:R:3
Si 48.92768212 48.77554060 0.02414413
Si 53.34491214 -2.03966338 2.87714981
Si -1.96292513 53.34655421 2.59470077
Si 2.38003595 2.33586654 56.03334060
Si 1.10614504 1.24099138 1.55658949
Si 1.07651943 3.86074759 4.40349658
Si 3.85504129 0.92476406 4.30267654
Si 3.63542025 3.70998332 1.48477398
Si 48.85942914 48.77961361 5.61196738
Si -0.17544828 2.72271940 8.20122880
Si 2.49359259 -0.19246599 8.45365765
Si 2.47445562 2.38038136 5.54769005
Si 1.18042292 1.18636164 7.09025730
Si 1.12593367 3.93334665 9.77621446
Si 3.81293897 1.06075634 9.83640525
Si 3.63737562 3.74573583 7.10031838
Si 53.49338854 -4.66403043 11.10806910
Si -0.23308142 2.83077402 13.83697212
Si 2.67018579 -0.19264658 13.94321064
Si 2.42546816 2.47172238 11.12537175
Si 1.14830768 1.23690013 12.69514959
Si 1.06145431 3.96963943 15.51000045
Si 3.91139956 0.91819667 15.52547812
Si 3.60827468 3.66678247 12.81756274
Si 53.55261840 -4.71568818 16.73796268
Si 53.38226740 -2.02384383 19.52699803
Si -2.00335756 53.35189159 19.53697253
Si 2.48287422 2.55181576 16.74450486
Si 1.22488029 1.30077313 18.29776258
Si 0.92856924 3.89584296 21.12383337
Si 3.93212483 0.93954235 21.11206006
Si 3.62075044 3.69861982 18.35848154
Si 48.91791218 48.83639540 22.34524306
Si -0.16979325 2.77949107 25.11951445
Si -2.01156819 53.34242307 25.11042631
Si 2.38995225 2.45487368 22.27464975
Si 1.16156373 1.23904515 23.80018267
Si 1.04925388 3.98643216 26.79539670
Si 3.82711951 0.93813460 26.66099002
Si 3.67636477 3.69591185 23.77992756
Si 0.08350559 -0.00113186 27.98089123
Si 53.30449165 -1.94361678 30.67907502
Si 2.80251390 -0.15723191 30.61505345
Si 2.55215747 2.47306037 28.01290549
Si 1.17708542 1.32364012 29.51396175
Si 0.91355431 4.11224002 32.28867230
Si 3.91019087 1.10376194 32.20098862
Si 3.81094276 3.69290058 29.50276501
Si 0.10538023 0.03178130 33.53680588
Si 53.30570749 -2.07428016 36.26504763
Si 2.67963018 -0.21813283 36.42920908
Si 2.40684996 2.56144377 33.54674998
Si 1.18121967 1.19222195 35.15994032
Si 0.87860703 3.85289432 37.77737173
Si 3.79512153 1.08975972 37.86965358
Si 3.65209285 3.61938651 35.15687129
Si 53.57505438 -4.69141615 39.11596621
Si 53.37124244 -1.95893879 41.93971173
Si 2.68217236 -0.20649103 41.95325231
Si 2.39584155 2.54779913 39.12948370
Si 1.13861813 1.25008882 40.68429378
Si 0.84995722 4.10405099 43.50288967
Si 3.86912287 1.07871631 43.53279105
Si 3.61337825 3.79834244 40.61330533
Si -4.60564179 53.56154030 44.79534074
Si -0.16514571 2.68598150 47.53532913
Si -2.12423906 53.33740250 47.57279970
Si 2.40668460 2.68550454 44.73784076
Si 1.31072660 1.35785746 46.32828028
Si 1.02332091 3.86837262 49.06951018
Si 3.94520493 1.05247189 48.99742664
Si 3.60187157 3.82123862 46.33897959
Si 53.58106008 -4.73379077 50.43638716
Si 53.35646779 -2.11521961 53.29255214
Si -1.95059348 53.31310019 53.15572934
Si 2.48474316 2.41165227 50.32760512
Si 1.22939426 1.22567782 51.95849053
Si 0.91451118 3.82522326 54.85519049
Si 3.90342441 0.95990563 54.65154103
Si 3.65154405 3.65811914 51.95882742
Si -0.42670492 5.29448168 55.92108577
Si -0.60717825 8.00527780 2.77030145
Si 2.05470319 5.13775610 2.70881116
Si 1.94661792 7.92749546 56.03049892
Si 0.70959081 6.51483805 1.45701971
Si 0.53032075 9.23556817 4.31838179
Si 3.39668412 6.34078917 4.19439553
Si 3.26017355 9.07901578 1.50880294
Si 53.12973484 0.66004041 5.50163489
Si -0.69509151 8.09251818 8.23548276
Si 2.18705637 5.23881824 8.24034891
Si 1.98952980 7.74915462 5.51779367
Si 0.67941436 6.54819011 6.99138168
Si 0.67356363 9.26681869 9.75846175
Si 3.52575938 6.31294974 9.87246283
Si 3.29067945 8.91993075 6.95185986
Si -0.37986757 5.36069677 11.03780674
Si -0.58360213 7.96606752 13.86855414
Si 2.16548196 5.23137485 13.92156943
Si 2.06301865 7.88833400 11.00541702
Si 0.83396303 6.60172188 12.62591228
Si 0.57102700 9.28964466 15.41675989
Si 3.47353329 6.39320525 15.55286509
Si 3.27517480 9.11764605 12.65546952
Si -0.45830615 5.38537164 16.65851134
Si -0.66578930 8.02432144 19.61790845
Si 2.29449138 5.13418790 19.54621370
Si 1.99016511 7.82043298 16.69027914
Si 0.73447006 6.52620349 18.29061242
Si 0.60516141 9.23781651 21.15595530
Si 3.47584817 6.39062602 21.22224083
Si 3.32284123 8.98863294 18.22258029
Si -0.46445667 5.48287183 22.34949309
Si 52.74067877 3.38829936 25.15407860
Si 2.31774477 5.15407698 25.09373850
Si 2.01668838 7.87342084 22.41382086
Si 0.78638902 6.54318047 23.91844792
Si 0.54284079 9.20193736 26.57844272
Si 3.50323074 6.34659958 26.68678380
Si 3.35357167 9.06529825 23.99010376
Si 53.12375415 0.67266526 27.89060296
Si -0.62612714 8.09753535 30.77792254
Si 2.38564038 5.10441060 30.70035190
Si 1.92359475 7.82466779 27.73263442
Si 0.80899168 6.65110142 29.50355979
Si 0.60917814 9.24633650 32.36407088
Si 3.63705901 6.19443515 32.32641087
Si 3.27407009 8.91466027 29.35232033
Si 53.06821390 0.78358021 33.65455383
Si 52.87822345 3.30931954 36.33789546
Si 2.16695696 5.09044427 36.25360090
Si 2.01387671 7.69658833 33.54874096
Si 0.74435234 6.66797271 35.09600226
Si 0.45956618 9.23544182 37.88829153
Si 3.39663285 6.34562096 37.83574666
Si 3.26941849 8.95710001 35.09343790
Si 53.08533148 0.65473030 39.04406190
Si 52.78286703 3.33379047 41.93051089
Si 2.08269931 5.19560092 41.92764027
Si 1.90597864 7.81038859 39.17483808
Si 0.58653848 6.68942879 40.67986589
Si 0.46867261 9.28902062 43.34750561
Si 3.49472086 6.37175854 43.38202605
Si 3.22059604 8.99217411 40.61127162
Si 53.11723238 0.84407090 44.81052409
Si 52.82414422 3.35163454 47.53529801
Si 2.29013445 5.22954537 47.65882583
Si 1.97814185 7.95138121 44.61084454
Si 0.86661799 6.69972361 46.27291084
Si 0.43679469 9.25619637 49.18382677
Si 3.48368608 6.40599637 49.16146833
Si 3.24029949 9.09441311 46.28144249
Si -0.43154711 5.27532789 50.38686566
Si -0.65690246 8.03380650 53.27170200
Si 2.14889710 4.99785915 53.22153274
Si 1.89421228 7.81573761 50.41259314
Si 0.74774768 6.44471032 51.99121087
Si 0.55595362 9.37693882 54.69886836
Si 3.32773577 6.36891142 54.68889036
Si 3.15947145 9.15098996 51.83525091
Si -0.80541808 10.83278791 55.94690949
Si -1.06500601 13.37119247 2.72741055
Si 1.84908389 10.48023094 2.80162049
Si 1.61685759 13.18112767 55.80505152
Si 0.39331939 11.92749456 1.48766978
Si 0.06733713 14.57022308 4.34582687
Si 3.08921267 11.69104214 4.27803384
Si 2.79778879 14.31200117 1.41176123
Si -0.83673652 10.72827824 5.56199344
Si 52.43859235 8.57709733 8.27951774
Si 1.86674920 10.45716587 8.11373598
Si 1.60959757 13.19350385 5.51833787
Si 0.41417236 11.91258711 7.06299817
Si -0.06262614 14.67081548 9.69498865
Si 2.97677977 11.73708560 9.82455115
Si 2.76395613 14.45670473 7.10657337
Si -0.80066962 10.70069968 10.94213963
Si 52.43658680 8.56388120 13.86047124
Si 1.92020583 10.49909967 13.89378474
Si 1.31533879 13.20593200 11.02212924
Si 0.30529023 11.89394414 12.67439532
Si 0.11680956 14.57346213 15.31418979
Si 3.10553559 11.65978242 15.50522414
Si 2.73118633 14.39394101 12.52973404
Si -0.85314694 10.74413977 16.71583767
Si -1.08112589 13.36602711 19.45560574
Si 1.75820116 10.40015067 19.43075492
Si 1.63433757 13.18693108 16.52088606
Si 0.43460916 11.94904715 18.15854548
Si 0.12031902 14.48043351 21.00507301
Si 3.00978234 11.57944057 20.97938287
Si 2.81076445 14.36375660 18.20998789
Si -0.85991701 10.68375769 22.40908714
Si -1.05733101 13.37478932 25.13416846
Si 1.80207112 10.52197994 25.14038866
Si 1.61331550 12.97863861 22.19598493
Si 0.36292262 11.87549476 23.86093733
Si 0.08859456 14.54998924 26.85506866
Si 3.04154868 11.65152692 26.75549668
Si 2.56224349 14.23303250 23.91910134
Si -0.82251857 10.68410065 27.75205897
Si -1.02371072 13.29799329 30.60487893
Si 1.78957191 10.26655118 30.66240858
Si 1.54590308 13.09785261 28.08261209
Si 0.38951760 11.76179171 29.44370663
Si 0.04951196 14.52955240 32.25308482
Si 2.87470758 11.63983742 32.30108462
Si 2.86217371 14.37392442 29.50993879
Si -0.89509972 10.69775742 33.52975790
Si 52.43882596 8.55752474 36.36796506
Si 1.67348821 10.50533567 36.31418578
Si 1.52563282 13.08981042 33.49700136
Si 0.28956126 11.95340024 35.12712254
Si 0.03222455 14.68101742 37.92366063
Si 2.90447415 11.74234283 37.87491155
Si 2.71978579 14.40952904 35.12189191
Si 52.65143732 5.91946823 39.13965942
Si 52.46066539 8.58517324 42.00884980
Si 1.80409023 10.48624117 41.95697504
Si 1.40047198 13.17041482 39.17972677
Si 0.27240825 11.87116878 40.75499765
Si 0.09497798 14.60574628 43.47576811
Si 2.98581532 11.73395763 43.45094251
Si 2.69970469 14.38848303 40.61152027
Si 52.65922510 5.95145833 44.73685280
Si 52.44896959 8.62734232 47.44562026
Si 1.72035183 10.46533016 47.61353637
Si 1.54407975 13.13489525 44.72127089
Si 0.28681628 11.89266632 46.27731625
Si -0.05210616 14.60157764 49.11355902
Si 2.97936139 11.81757641 49.15245375
Si 2.67966160 14.32098186 46.35876850
Si -0.88881903 10.74244322 50.43281738
Si 52.45619709 8.76079159 53.12303986
Si 1.75071979 10.60613804 53.08913712
Si 1.52827575 13.13497785 50.32855152
Si 0.30547838 11.93612062 51.89927803
Si 0.06497891 14.61497803 54.77243153
Si 3.00342822 11.64012480 54.62477403
Si 2.63130283 14.36478063 51.88648900
Si 52.20919577 11.31831490 55.93898751
Si -1.60705780 18.84898878 2.68610032
Si 1.28482829 15.76312508 2.78001562
Si 1.02036869 18.57020295 55.90906890
Si -0.15383964 17.39062184 1.48860643
Si -0.52100151 20.06346373 4.36436838
Si 2.49021767 17.06982183 4.26294461
Si 2.29168713 19.83140329 1.46435194
Si -1.36568990 16.18208431 5.41423439
Si -1.58263746 18.82697607 8.28303249
Si 1.36573855 15.88895971 8.36091348
Si 0.95046929 18.48301252 5.54672332
Si -0.19234117 17.22314824 7.13076594
Si -0.28298773 20.02455504 9.81285897
Si 2.66422629 17.10410916 9.92977265
Si 2.21904878 19.62502924 7.00601822
Si -1.33653899 16.16261866 10.99835911
Si -1.51504033 18.56224511 13.82867459
Si 1.34861037 15.87285917 13.90022954
Si 1.15181526 18.48894653 11.04223313
Si -0.01724234 17.29507139 12.61724435
Si -0.46176922 19.83206614 15.48598349
Si 2.59699840 17.05209523 15.45812201
Si 2.19965799 19.69537456 12.70483379
Si -1.29552856 15.94725340 16.64198871
Si -1.57625242 18.66860651 19.51741726
Si 1.30930660 15.75740063 19.44871376
Si 1.03395797 18.44766466 16.56183202
Si -0.11156466 17.27034868 18.11192126
Si -0.41949829 20.05914373 21.07236919
Si 2.41388123 16.95830555 21.05400530
Si 2.17975626 19.63515862 18.25303194
Si -1.33202675 15.99335438 22.22135159
Si 51.96631214 14.03691096 25.17374876
Si 1.21014569 15.67105514 25.18898185
Si 1.02931931 18.47031012 22.26195740
Si -0.19752142 17.25915439 23.94949230
Si -0.39688657 20.03143088 26.63998053
Si 2.45477528 17.12523995 26.54091603
Si 2.28367923 19.77785333 23.86567759
Si 52.22898887 11.29262658 28.03935340
Si -1.59896737 18.75336993 30.84125053
Si 1.30870700 15.82657844 30.72988608
Si 0.97938155 18.56753040 27.86153151
Si -0.08854122 17.27945177 29.45686333
Si -0.39256367 19.87290533 32.47676495
Si 2.54261592 17.00739137 32.37655439
Si 2.30275606 19.74199890 29.45143126
Si 52.15633339 11.19962908 33.43540333
Si -1.60094953 18.66128956 36.28356450
Si 1.29553158 15.82307754 36.36373068
Si 1.08580414 18.36013082 33.59595141
Si -0.26124766 17.13970528 35.06203309
Si -0.38072707 19.97607889 37.91347236
Si 2.53815762 17.24587306 37.83868325
Si 2.49721606 19.60565034 35.07728198
Si 52.13548579 11.36105635 39.08613833
Si -1.56973456 18.82303876 41.98835852
Si 1.24630163 15.88411338 41.84844474
Si 1.07789381 18.55047803 39.13998419
Si -0.25754693 17.32725768 40.64561332
Si -0.31407751 19.97327618 43.53493142
Si 2.55016126 17.03717846 43.48713232
Si 2.22207768 19.69859661 40.73521948
Si -1.27793142 16.07201066 44.74679855
Si -1.50509962 18.84994020 47.51842864
Si 1.25121485 15.87026289 47.62036556
Si 1.18409608 18.52392712 44.68534303
Si -0.03926282 17.34002558 46.40075544
Si -0.49592019 20.07826596 49.19283143
Si 2.46059238 17.15619371 49.13093670
Si 2.28463403 19.77739183 46.34081582
Si 52.13937540 11.48613988 50.19080166
Si 51.95787016 14.05023384 53.24486044
Si 1.18756143 15.80830860 53.13107691
Si 0.98585193 18.54230030 50.35889028
Si -0.28840292 17.30220116 51.87042061
Si -0.34810549 20.06224645 54.70904881
Si 2.45569217 17.02945673 54.62806031
Si 2.34191042 19.76142731 51.80907994
Si -1.74546917 21.52040142 55.90303586
Si -2.07595660 24.12447120 2.63730206
Si 0.79421750 21.15896526 2.78580353
Si 0.72128277 23.83187828 55.93190936
Si -0.64010897 22.66017283 1.50920448
Si -0.81250821 25.40920044 4.22491829
Si 2.13921359 22.36648401 4.39243963
Si 1.86018378 25.10642998 1.51312108
Si -1.86857047 21.59578292 5.58825220
Si 51.47266135 19.48357169 8.39345214
Si 0.89406311 21.25373614 8.31274711
Si 0.60497579 23.93345576 5.46531633
Si -0.54245144 22.76276092 7.16011860
Si -0.84023339 25.36739672 9.93258895
Si 2.25107406 22.33229438 9.82832318
Si 1.90541656 25.17656403 7.13941618
Si -1.79162727 21.47537101 11.04129445
Si 51.52446718 19.29501442 13.96390367
Si 0.83133158 21.06881446 13.93217957
Si 0.69986988 23.74893816 11.06972917
Si -0.61437557 22.62214081 12.66209543
Si -0.83691137 25.35234763 15.44336774
Si 1.91048268 22.33604313 15.57683086
Si 1.84809819 25.07093956 12.62378897
Si 51.68101396 16.56049522 16.69948886
Si -1.95719322 24.00727597 19.49234541
Si 0.80158361 21.12505764 19.40356525
Si 0.54286746 23.80964558 16.74891774
Si -0.59084550 22.53500398 18.26364044
Si -0.95529465 25.38698702 21.01382708
Si 1.99253742 22.44246705 20.97876340
Si 1.69645060 25.09332745 18.35662951
Si -1.80345513 21.53328942 22.30074586
Si -2.01429419 24.25992887 25.08109062
Si 0.79421979 21.25107892 25.07639990
Si 0.67321924 23.93592995 22.16836438
Si -0.52517264 22.88289001 23.82856548
Si -0.82049678 25.36978221 26.77932028
Si 2.04533287 22.38743860 26.67710539
Si 1.81714321 25.11343251 23.84961241
Si 51.66211956 16.72542636 27.87213283
Si -1.91294748 24.11103245 30.74912647
Si 0.79372134 21.13790104 30.79734708
Si 0.58115351 23.66942134 27.90144579
Si -0.59495815 22.51705037 29.48479954
Si -0.71063547 25.27173218 32.40772504
Si 2.10758281 22.39116505 32.31769211
Si 1.78362896 25.03506934 29.41724188
Si 51.76636063 16.50899140 33.69522262
Si -2.06339002 24.03206763 36.33619362
Si 1.02226490 21.11359217 36.42165835
Si 0.71728825 23.75432417 33.64409942
Si -0.54114744 22.59576807 35.18269517
Si -0.91619144 25.29587862 37.90656103
Si 2.03200658 22.38317809 38.02283985
Si 1.96138716 24.98784792 35.12170614
Si 51.71574074 16.72314822 39.16433953
Si 51.46400846 19.39556175 41.94685270
Si 0.74697262 21.28911112 41.93776196
Si 0.59953101 23.82233303 39.22036232
Si -0.68869521 22.65027965 40.72652102
Si -0.80685859 25.31452036 43.44254239
Si 2.13092183 22.46601362 43.42668463
Si 1.89865190 25.06609790 40.61976136
Si -1.76929532 21.45092939 44.72970346
Si -2.03648559 24.04756110 47.55843783
Si 0.88179971 21.24528804 47.62839910
Si 0.63636602 23.87179607 44.69550371
Si -0.56425341 22.64749324 46.29975778
Si -0.84391315 25.36780264 49.04466029
Si 2.12955871 22.41265492 49.13054987
Si 1.76043851 25.17667598 46.33427919
Si 51.75727543 16.78318298 50.51642492
Si -1.99333903 24.10019096 53.13632764
Si 0.93397361 21.28217513 53.07696599
Si 0.64136817 23.91463946 50.27891118
Si -0.53420101 22.76440091 51.84779354
Si -0.85543755 25.31115094 54.79670462
Si 2.16362259 22.38110307 54.68611699
Si 1.74246414 25.11455559 51.91745138
Si -2.23069385 26.81289793 55.91404129
Si -2.52001441 29.55361660 2.63046309
Si 0.49234248 26.62526052 2.64314665
Si 0.08034841 29.30359113 55.84406909
Si -1.02890415 28.08231180 1.58763376
Si -1.39465873 30.87798785 4.24871292
Si 1.52132510 27.90730539 4.32857462
Si 1.28493261 30.39611266 1.47344527
Si 51.27724448 22.17756610 5.45375444
Si 50.93681326 24.90054520 8.26348852
Si 0.31109427 26.60861780 8.26343677
Si 0.06342811 29.40255564 5.45834611
Si -1.19863835 28.14288960 7.06564855
Si -1.33924005 30.80011181 9.84991399
Si 1.46060849 27.82183722 9.91982231
Si 1.30790325 30.51345647 7.03698010
Si 51.19322184 22.06552594 11.02598810
Si 50.87579323 24.84609042 13.95837956
Si 0.26836056 26.51997924 13.76707160
Si -0.07139413 29.27141495 11.19524298
Si -1.31491461 28.05081957 12.66106158
Si -1.37834702 30.79689429 15.53451122
Si 1.45886740 27.71756048 15.35987638
Si 1.33168742 30.52984204 12.63379971
Si 51.17521602 22.02230698 16.73161784
Si 50.97289261 24.65088446 19.37231270
Si 0.31659880 26.64870701 19.53844373
Si -0.00008182 29.20121624 16.64009827
Si -1.13187882 28.01878227 18.23874395
Si -1.38664174 30.59178461 21.03538029
Si 1.52615771 27.80242756 21.14437043
Si 1.21305299 30.52919436 18.17529044
Si 51.22796747 22.02551361 22.29199900
Si 50.98253741 24.64660659 25.07814908
Si 0.33565030 26.52778899 25.11089910
Si 0.04680945 29.26919349 22.35000845
Si -1.10072158 27.92813814 23.86044434
Si -1.43487023 30.69052135 26.70538908
Si 1.54653085 27.78768674 26.68133060
Si 1.21825354 30.44950683 23.93661569
Si -2.20401210 26.89014143 27.98617888
Si -2.43599321 29.47614291 30.85923130
Si 0.41653544 26.52160889 30.80326716
Si 0.14574366 29.28394288 27.91632021
Si -0.89197613 28.03160718 29.57871199
Si -1.32446223 30.72529246 32.42685758
Si 1.61597931 27.73203728 32.35094918
Si 1.34800008 30.49968251 29.49124776
Si 51.29850334 21.90513980 33.58547998
Si -2.44267612 29.34067472 36.48206193
Si 0.33095681 26.43212624 36.32357797
Si 0.11727115 29.22271827 33.55107668
Si -1.06005242 27.94566443 35.06833112
Si -1.29805671 30.69334068 37.98303463
Si 1.64505097 27.74017471 37.77827476
Si 1.35785516 30.44932198 35.11077607
Si 51.27710672 22.09446049 39.33623046
Si 50.98901823 24.70555027 42.02112599
Si 0.42815911 26.54958679 41.90835757
Si 0.21445599 29.20429077 39.17821593
Si -1.08287844 28.05371156 40.73864022
Si -1.38657851 30.71592910 43.54013434
Si 1.63613947 27.76465897 43.45891737
Si 1.31883452 30.51169627 40.63992690
Si 51.29578767 22.04310407 44.75558370
Si 50.97750552 24.76921220 47.42899869
Si 0.31782523 26.61109385 47.50711714
Si 0.14421850 29.30706042 44.64833646
Si -1.01499749 28.07579589 46.18299798
Si -1.42813753 30.74876596 49.08737259
Si 1.52386311 27.71169635 49.12499403
Si 1.23107788 30.41834872 46.31373226
Si 51.23301118 22.05553014 50.28461576
Si 50.87613212 24.76090478 53.16150815
Si 0.22260468 26.46741352 53.18116897
Si 0.02556532 29.25112169 50.37191651
Si -1.17637767 27.97022703 51.87279437
Si -1.41201536 30.75064297 54.52397617
Si 1.48074636 27.72479636 54.68205721
Si 1.30688690 30.48124074 51.87286193
Si 50.81564545 27.39262165 55.92482176
Si -2.95892455 34.85183976 2.69360210
Si -0.09888351 31.99471224 2.72200484
Si -0.38435082 34.61112988 55.89930506
Si -1.56627876 33.32616372 1.49063957
Si -1.72341499 36.08284680 4.15219948
Si 1.06988509 33.24001640 4.22434972
Si 0.88216168 35.86636758 1.35464062
Si 50.76247601 27.47579944 5.56807781
Si -3.00756430 34.97748742 8.24479248
Si -0.05713139 32.03013375 8.31743102
Si -0.31486765 34.68303495 5.51401520
Si -1.59814382 33.51097185 7.07675995
Si -1.82954304 36.05901871 9.93468548
Si 1.13462324 33.17000175 9.90337712
Si 0.86193114 35.80223816 7.13851640
Si 50.80524845 27.40323680 11.13583269
Si 50.58626797 30.10948709 13.84103427
Si -0.09073439 31.88110333 13.90004612
Si -0.29232366 34.66784963 11.23548468
Si -1.48651445 33.31202848 12.70706118
Si -1.79861735 36.00877824 15.47630979
Si 1.10261063 33.18035217 15.48557268
Si 0.90507128 35.76875487 12.80488746
Si -2.79179245 32.36221551 16.79639050
Si 50.49963467 30.18511205 19.56765245
Si -0.24494120 31.91954016 19.51006897
Si -0.30707056 34.66700908 16.72573986
Si -1.66743428 33.49988684 18.28986695
Si -1.80558300 35.99028695 21.08633516
Si 1.10304819 32.99991846 21.15742281
Si 0.87394144 35.89506753 18.28023560
Si 50.81894347 27.41036625 22.34908333
Si 50.47902819 30.09980698 25.08158756
Si -0.06068273 32.04204797 25.23219144
Si -0.35517682 34.51462068 22.30253571
Si -1.66347553 33.46522958 23.93901814
Si -1.93808722 36.08890425 26.79339484
Si 1.23544135 33.18822717 26.79369395
Si 0.79624098 35.87169162 23.91959050
Si -2.75704746 32.16821010 27.90786483
Si -2.73869936 34.82933939 30.84269188
Si -0.01469354 31.84305696 30.80954232
Si -0.28785227 34.61039596 27.96503919
Si -1.45350263 33.39181076 29.58212119
Si -1.53645366 36.06395137 32.40248325
Si 1.26256734 33.13917172 32.21084227
Si 0.87481350 35.95661064 29.51746953
Si -2.64888015 32.09004272 33.72476347
Si -2.93014848 34.89053667 36.32865157
Si -0.00738458 31.91435154 36.38267284
Si -0.16116528 34.54471510 33.55907584
Si -1.44815010 33.40546348 35.20305709
Si -1.67336098 35.92056542 37.95477998
Si 1.29640017 33.13379732 37.82791825
Si 1.02144254 35.74213610 35.23730121
Si 50.80849631 27.33911995 39.18108499
Si -2.94728416 34.84600485 41.93247973
Si -0.12550932 31.91887861 41.92435114
Si -0.25370351 34.43668989 39.11768203
Si -1.59232115 33.32138945 40.70515767
Si -1.82581130 36.04695004 43.60579031
Si 1.16385274 33.11109037 43.65563078
Si 0.91553572 35.80150389 40.73083093
Si 50.67629313 27.45581405 44.85934226
Si 50.57458981 30.06906657 47.61526429
Si -0.09665526 31.84656340 47.55219460
Si -0.25597684 34.54078974 44.87572549
Si -1.55977217 33.34589711 46.40460752
Si -1.86120220 36.01357121 49.09097500
Si 1.11969220 33.08756806 49.10009078
Si 0.97720091 35.76253454 46.48645623
Si 50.71234618 27.42448636 50.27290406
Si 50.53429694 30.09905233 53.10279421
Si -0.09868464 32.02076499 53.07547559
Si -0.33552464 34.60963975 50.26275888
Si -1.55613899 33.31624099 51.74740378
Si -1.80991265 36.07664319 54.71151837
Si 1.03119349 33.10104817 54.73677275
Si 0.68976648 35.76480179 51.98799799
Si 50.36950948 32.74641883 56.05393908
Si -3.38090924 40.11083250 2.71542305
Si -0.52278042 37.25730079 2.60539705
Si -0.68909017 39.97604923 55.82792402
Si -1.99165949 38.72074380 1.40246281
Si -2.21752834 41.32248998 4.27882340
Si 0.67958149 38.52704659 4.23792397
Si 0.44073670 41.20811194 1.49860725
Si 50.30023347 32.64652411 5.39169744
Si -3.40726711 40.04303660 8.31973276
Si -0.58846741 37.19248546 8.33925408
Si -0.85411059 39.86360763 5.45899314
Si -2.07804855 38.59308945 7.00526474
Si -2.23105212 41.39539669 9.74463932
Si 0.66356718 38.46268889 9.78015906
Si 0.38505941 41.14987890 7.01991600
Si 50.25088589 32.72585208 11.19070362
Si -3.38939911 40.13140842 13.89939139
Si -0.55009066 37.23242846 13.96256544
Si -0.77556787 39.91260678 11.14398032
Si -2.04404945 38.60141223 12.65413896
Si -2.34296094 41.46034677 15.49081424
Si 0.69947114 38.50993126 15.49465318
Si 0.39226906 41.12585348 12.67891851
Si 50.35292177 32.63787752 16.64805633
Si -3.40200850 40.29381317 19.40286425
Si -0.61387671 37.26390907 19.54702355
Si -0.88009070 39.81232733 16.66692199
Si -2.06972446 38.63380794 18.24497663
Si -2.15482108 41.46191449 21.05483784
Si 0.70525219 38.52043566 21.19205887
Si 0.40160654 41.11068302 18.29981183
Si -3.20690243 37.50445711 22.29060312
Si -3.40969736 40.26583243 25.22852367
Si -0.61437258 37.32205709 25.25330152
Si -0.67749293 39.99221893 22.34360086
Si -1.95955554 38.81875229 23.88381685
Si -2.18109252 41.53876118 26.81854825
Si 0.70727109 38.55739635 26.78993939
Si 0.47386959 41.25930679 23.93038010
Si -3.24123045 37.64424544 28.03738456
Si -3.40438158 40.18021957 30.74765211
Si -0.53300531 37.38727426 30.75203674
Si -0.81942035 40.02650688 27.96708435
Si -2.04499103 38.78441442 29.61202274
Si -2.22508950 41.36688550 32.28401580
Si 0.72627910 38.51399949 32.27649433
Si 0.48914865 41.18011231 29.41974822
Si -3.10185618 37.38896353 33.61221195
Si -3.27014742 40.10984101 36.31036114
Si -0.43215964 37.12429217 36.40705875
Si -0.75960314 39.99058660 33.54005550
Si -1.85968036 38.62853543 35.13642051
Si -2.07787645 41.20457167 37.93421581
Si 0.76047369 38.35861741 37.96317815
Si 0.54017503 41.06292886 35.12061790
Si -3.12039717 37.46997586 39.16077176
Si -3.40137508 40.06639394 41.99685839
Si -0.48831108 37.19459339 41.98207097
Si -0.76577690 39.83229995 39.25161874
Si -1.98299504 38.62109221 40.76395952
Si -2.15141099 41.35919719 43.39278523
Si 0.72160460 38.46754390 43.43737428
Si 0.48242843 41.13704288 40.72946793
Si -3.21753112 37.48307392 44.74115080
Si -3.33470995 40.15069032 47.55706522
Si -0.56473334 37.18714284 47.62416063
Si -0.70094156 39.85625637 44.68573398
Si -1.86738430 38.64638946 46.24266676
Si -2.17960352 41.42152845 49.07253580
Si 0.63830932 38.52358381 49.15206836
Si 0.40253435 41.12598774 46.28585252
Si 50.36834158 32.79947014 50.37471508
Si 50.12691549 35.41361845 53.18695459
Si -0.64036872 37.29423869 53.17579795
Si -0.84772399 39.91073412 50.30155588
Si -2.06237904 38.79511606 51.91688637
Si -2.22536699 41.29363163 54.68222646
Si 0.64610512 38.43917175 54.64320437
Si 0.30890909 41.10496204 51.93604788
Si -3.64778728 42.94551289 55.84936637
Si 49.62180880 40.84192450 2.63116832
Si -1.07762519 42.56512529 2.66668914
Si -1.17704104 45.15815017 55.98497229
Si -2.48176964 44.04567132 1.48213402
Si -2.70589370 46.79811732 4.21198109
Si 0.12242055 43.81622345 4.27745871
Si -0.05023502 46.52106345 1.51564554
Si 49.83239334 38.04961683 5.46936557
Si 49.58614875 40.89713433 8.28578054
Si -1.02605512 42.68465657 8.23525267
Si -1.30979701 45.24655073 5.41836004
Si -2.59929075 44.09022950 7.00600282
Si -2.78187488 46.88391445 9.86466901
Si 0.22661126 43.89549014 9.80537251
Si 0.05845275 46.41884284 7.10472074
Si -3.69602372 42.89561693 11.04247550
Si -3.90943760 45.61005190 13.89514546
Si -1.12468070 42.66927721 13.91088397
Si -1.14456384 45.36275717 11.01247912
Si -2.42865475 44.18011440 12.57743263
Si -2.64834364 46.78988505 15.47257126
Si 0.13695469 43.85215619 15.56836441
Si -0.03441581 46.52226616 12.71845906
Si 49.79815151 38.11756667 16.71427188
Si 49.55540514 40.85334406 19.48645388
Si -1.02595161 42.74883979 19.55299579
Si -1.24521377 45.36998613 16.74547651
Si -2.64164638 44.08477744 18.22237407
Si -2.72946337 46.76940098 21.07876332
Si 0.19055923 43.98188171 21.12156188
Si 0.08314654 46.57575186 18.33018954
Si -3.66607254 42.94022937 22.30913250
Si 49.63498208 40.86198837 25.18975489
Si -1.00147224 42.66520368 25.14197700
Si -1.29872052 45.40489131 22.39816322
Si -2.48800817 44.10288938 23.90127582
Si -2.75384619 46.79952138 26.74073755
Si 0.24526604 43.90886029 26.69351608
Si -0.07318065 46.56282482 23.92250086
Si -3.55767588 43.00387189 28.03532494
Si -3.86609252 45.61808886 30.87274454
Si -0.93015073 42.60604922 30.75521227
Si -1.20581006 45.34856451 27.96534953
Si -2.30664531 44.18935074 29.62813680
Si -2.52693267 46.78838937 32.33084514
Si 0.29113676 43.79668887 32.25891681
Si 0.00382301 46.60216698 29.56789459
Si -3.58887563 42.79340187 33.53748133
Si -3.75463317 45.50911764 36.24504512
Si -0.92194599 42.48224577 36.28744175
Si -1.14713959 45.22232949 33.45731647
Si -2.32567399 43.96517722 35.07003581
Si -2.64616695 46.77391953 37.77868390
Si 0.06002278 43.87806345 37.89305900
Si 0.00635282 46.58600471 35.05325178
Si -3.68079727 42.79938149 39.14515563
Si -3.87454613 45.57773882 41.97437709
Si -0.93147249 42.60363487 41.80948960
Si -1.30439747 45.33049248 39.18684343
Si -2.51130781 44.04465362 40.68413063
Si -2.66347196 46.75563948 43.51041429
Si 0.22534914 43.81157872 43.42812936
Si -0.05785702 46.52590889 40.73004783
Si -3.63955630 42.80101078 44.62212362
Si -3.88070772 45.49445747 47.45844264
Si -0.90931668 42.62859223 47.58815089
Si -1.19802998 45.31259801 44.68440733
Si -2.39698550 44.02520761 46.30136387
Si -2.79924034 46.76388396 49.07024836
Si 0.25793172 43.85112556 49.14864359
Si -0.06132022 46.57130261 46.35975501
Si 49.86378956 38.02265264 50.20544239
Si -3.83365781 45.58620739 53.02755786
Si -1.15390767 42.72171799 53.05861464
Si -1.25363303 45.40809221 50.34919204
Si -2.53089795 43.99772235 51.72097744
Si -2.63978030 46.73486498 54.75011034
Si 0.09619245 43.68161015 54.78443295
Si -0.03037455 46.65437672 51.92484049
Si -4.02332875 48.28050415 0.00165220
Si -4.37079115 50.80540358 2.77203252
Si -1.33772282 48.06245841 2.78493414
Si -1.70159801 50.67554560 55.98936386
Si -2.80721792 49.50018962 1.53843974
Si -3.17430034 52.19477849 4.34580641
Si -0.23905508 49.29058235 4.41174275
Si -0.55056553 51.89789914 1.49942400
Si -4.08732710 48.17467426 5.50887269
Si 49.09577030 46.27565919 8.37766511
Si -1.53497389 47.99210787 8.26245596
Si -1.72024700 50.70895341 5.61348052
Si -2.94406941 49.44447606 7.09779540
Si -3.30880113 52.19720225 9.94960509
Si -0.33050256 49.16611221 9.94985836
Si -0.55550784 51.91932077 7.17603097
Si 49.25627122 43.64872996 11.12162404
Si 49.09777084 46.21484883 13.90808575
Si -1.55294595 48.03541489 13.81319058
Si -1.82532539 50.81030571 11.08620504
Si -2.98867300 49.54681410 12.62196074
Si -3.12548241 52.05845052 15.51240098
Si -0.31557235 49.17918123 15.49058380
Si -0.48449901 51.88963419 12.66795302
Si 49.43031457 43.48150315 16.73109389
Si -4.36297969 50.94154672 19.43193368
Si -1.42715513 48.01368536 19.49674153
Si -1.76243762 50.61715092 16.66398963
Si -2.90038730 49.42773903 18.33386746
Si -3.27225265 52.14242170 21.08092602
Si -0.28450573 49.13368547 21.18818234
Si -0.58274111 51.81878381 18.30790417
Si 49.36883079 43.43015793 22.35109681
Si -4.33883553 50.89389372 25.04333242
Si -1.51970495 48.02438143 25.17052616
Si -1.73491855 50.64361866 22.20878067
Si -2.98450932 49.35666719 23.81497486
Si -3.16357227 52.03739835 26.71140811
Si -0.22955666 49.29807692 26.65542221
Si -0.57222935 51.92555634 23.78878830
Si -4.11954785 48.37173553 27.91590530
Si -4.32581015 50.90245776 30.68848230
Si -1.44284137 48.05474870 30.70258027
Si -1.70417998 50.67616841 27.91874020
Si -2.89994393 49.47453109 29.50968184
Si -3.11499484 52.16412895 32.27235772
Si -0.22401080 49.27127290 32.35037346
Si -0.48715111 51.86031163 29.47475902
Si -4.07952716 48.24591415 33.56202852
Si -4.33507869 50.92509745 36.30695864
Si -1.45515893 48.10184847 36.20450199
Si -1.56816610 50.71867124 33.55957782
Si -2.87343840 49.56841071 35.01670304