8000
Time=20000.00000000 pbc="T T T" Lattice="54.76404418 0.00000000 0.00000000 0.00000000 54.76404418 0.00000000 0.00000000 0.00000000 54.76404418" energy=-30859.12218928 virial="-1729.33855063 -131.82809735 -16.71310393 -131.82809735 -1761.56958283 -56.66473826 -16.71310393 -56.66473826 -1449.45427272" stress="-0.00003574 -0.00080255 -0.00010175 -0.00080255 -0.00023195 -0.00034497 -0.00010175 -0.00034497 0.00166816" Properties=species:S:1:pos:R:3
Si 15.27824469 34.05851790 41.53343301
Si 24.93321513 3.84348964 36.00931671
Si 52.98197402 29.06526983 8.35762707
Si 45.67041692 51.96520819 40.26128925
Si 19.30190893 22.40555821 42.24306677
Si 35.45754038 22.80248643 16.65608123
Si 18.92298964 36.98323584 11.79388197
Si 1.67663363 21.53010492 40.67998534
Si 13.78425508 3.26139438 8.84216429
Si 53.86482980 20.80346259 30.22778578
Si 9.00895135 50.88220208 36.00808798
Si 20.25438598 0.26398359 7.69256836
Si 25.83302208 50.29803756 25.00894024
Si 39.32315815 8.59937818 14.05347308
Si 48.30661944 54.63051076 15.07994388
Si 10.34002824 28.25533947 49.05476713
Si 54.36972152 40.68093527 13.18573056
Si 46.83486715 4.41307951 12.03451573
Si 18.05207471 51.21049454 25.24046511
Si 5.29502821 9.70055696 11.35728991
Si 8.80918152 52.42163454 52.30581554
Si 10.33788026 47.90016410 12.68585234
Si 0.25441977 24.65237715 8.67048497
Si 20.76598723 6.70595643 7.79880490
Si 49.96264186 45.24195827 11.85622726
Si 3.99559457 1.02405955 52.17749078
Si 12.16876198 29.02438996 54.68020548
Si 45.30228530 51.08969380 29.83746401
Si 48.55876244 43.83093145 38.96734968
Si 13.08183356 11.00151997 24.56887250
Si 3.16678353 43.18343747 28.23223094
Si 45.40927173 27.30606183 5.70686734
Si 36.42584096 1.41614357 12.77603249
Si 46.78706706 30.47288924 41.24446670
Si 52.42385104 53.98571265 48.04684316
Si 47.87951986 43.31440796 33.22017037
Si 54.41039704 21.60290306 18.39057308
Si 8.42683020 7.28131511 34.11456076
Si 42.20175853 9.97228530 32.54510315
Si 9.52394846 19.63019723 45.06472080
Si 50.88688443 35.43412237 22.11075492
Si 10.31929114 7.22132293 35.96440778
Si 54.17701740 1.38714654 34.83463272
Si 54.43989777 47.58242984 35.81391149
Si 14.99588433 14.21679934 15.24511296
Si 52.88745935 20.95029854 27.69931239
Si 11.15888141 23.65747251 30.89848837
Si 5.76099227 15.52227660 22.86574645
Si 6.06724452 8.02946636 7.11972520
Si 48.82711180 5.66674082 27.72134826
Si 4.18746731 5.45214925 18.76451612
Si 11.40458561 24.90809480 38.26604022
Si 19.03259688 54.21937556 23.16683685
Si 15.40348415 29.44589382 28.46737026
Si 1.17933388 40.57604910 23.66487415
Si 51.24071309 10.29916523 37.34305563
Si 5.03896684 39.83315013 37.23364224
Si 3.88414140 22.47630539 39.65163653
Si 21.25469877 12.76958488 36.36326258
Si 15.22416724 52.43522514 35.67210529
Si 16.41764210 14.81708380 37.78787191
Si 51.13148302 42.37179475 27.68652009
Si 17.35996676 22.22894049 46.22837578
Si 0.65734361 9.75379093 47.68802046
Si 17.92502121 9.35163344 39.22217054
Si 35.22938205 17.68852616 53.21464836
Si 20.49906003 47.42363039 29.94892427
Si 53.48370096 23.35395216 36.98413665
Si 48.04704552 42.32791306 26.28304355
Si 28.93087146 1.68850316 31.33500037
Si 54.37211524 14.26772050 47.62697688
Si 44.62306097 2.51799288 48.17551632
Si 10.66282487 15.92270034 48.70064028
Si 22.58210153 43.81222022 4.85220905
Si 53.72638641 15.29509785 29.38581925
Si 18.19289693 1.52259563 1.50574603
Si 9.51934090 44.83876488 45.22756229
Si 44.92062451 54.68329314 52.37274194
Si 11.90027289 13.14465497 2.40205922
Si 51.36814196 5.62162512 42.97647681
Si 30.66926705 3.34924334 14.85101501
Si 54.05143403 19.53798923 42.45845879
Si 17.41736860 43.22285040 8.31158959
Si 53.23802056 48.72608793 54.28815625
Si 44.12722367 14.60023613 0.26040458
Si 53.17227509 23.04955496 44.18340366
Si 49.92916966 4.62330059 0.27673036
Si 12.44626065 48.99049031 29.16404282
Si 22.98226382 3.68402296 41.05886808
Si 16.90331973 30.83736900 8.11033505
Si 19.54162247 43.35053854 36.70469191
Si 15.42442709 46.07658923 4.66708941
Si 0.61497125 3.95070239 18.76029958
Si 19.02499119 34.28903105 1.91421945
Si 7.28100261 37.91511721 20.19077464
Si 31.52821280 34.52522450 11.68000319
Si 51.99947748 36.21872894 24.06461935
Si 11.98663330 40.00838940 26.67945095
Si 52.38990699 52.03107286 20.76645040
Si 8.16001925 2.92496075 17.94428464
Si 9.61312913 45.68944704 30.02950164
Si 10.16977641 47.65736533 8.94204584
Si 43.80995532 14.53031852 36.47694628
Si 18.40584670 53.49497932 2.22079043
Si 13.08640380 45.96056481 19.41108031
Si 11.63957570 30.71895036 52.81778992
Si 38.71278942 10.90029071 39.33972240
Si 30.28579517 19.21887354 9.38574616
Si 41.44928354 18.26010109 17.41390309
Si 5.70823831 4.89164458 26.52651224
Si 5.66282578 6.21806497 12.33030773
Si 5.20650465 4.98735315 22.23600650
Si 44.18827202 9.94999871 38.91139409
Si 0.53839729 27.83472092 35.34497061
Si 53.06892041 52.56661530 28.21579915
Si 45.52447508 8.73132073 30.05100951
Si 45.11118640 12.99386751 27.00627511
Si 11.71682358 9.26395017 28.22455701
Si 28.06643030 1.68881353 50.73330302
Si 2.64380901 21.08532674 30.45743772
Si 12.49961858 53.67266028 5.82805937
Si 22.52435601 14.36169111 47.32531978
Si 47.71394860 6.64653520 0.97782696
Si 20.28288403 27.34262976 40.38247525
Si 53.38478415 15.71005925 38.12801345
Si 15.08260917 9.16591743 25.96342528
Si 54.17246958 47.70990950 33.48600957
Si 50.99239654 18.67971680 29.51694471
Si 9.30764493 6.25343404 4.47963996
Si 6.97373269 13.26071820 35.81049664
Si 13.16152879 15.15121340 45.61752998
Si 51.78827738 2.65912174 37.72426209
Si 24.23142725 0.80694500 35.11131343
Si 12.60920406 27.22330029 47.61930842
Si 7.15063208 37.57918839 43.45243137
Si 9.40791683 15.17396307 39.89621741
Si 17.43935460 7.09160657 30.32611096
Si 26.36077635 12.53914296 28.83181024
Si 47.06945538 30.43626817 9.27680547
Si 46.64223476 3.55169995 50.78270333
Si 29.19433736 20.17618433 33.80494389
Si 42.14786358 1.11813712 24.20951018
Si 10.08140482 18.98345920 35.39147332
Si 6.27289040 22.01295317 0.47433671
Si 8.94131173 10.56314178 20.30505903
Si 5.84987996 6.62878951 49.51113552
Si 33.69987053 9.72474080 48.39374039
Si 35.50904753 13.97830249 51.28958682
Si 9.17010219 15.28073813 25.23617546
Si 51.52142235 16.59474881 11.48164275
Si 49.66810293 8.71068874 11.97163298
Si 4.00680950 3.85705331 11.21987799
Si 35.99731408 24.14550889 41.12082866
Si 35.11997029 51.98304674 33.60444724
Si 33.78755800 15.76381083 9.68494290
Si 10.18466269 12.74577860 11.02098484
Si 14.43426958 7.64810587 8.82141116
Si 32.55860409 15.17026929 2.44664398
Si 3.37616707 47.51754761 51.20504899
Si 12.72719350 18.78397676 5.50962394
Si 7.94715316 44.50488387 22.19612589
Si 0.63941484 2.24335474 12.07877398
Si 3.67701071 10.33717924 48.20235447
Si 44.37971883 7.09770381 11.83591274
Si 10.49709631 32.92203318 3.54646129
Si 13.88120951 10.24626242 16.76901307
Si 52.05472405 51.80556623 52.85060626
Si 10.62589472 3.33155399 16.07531608
Si 25.13473881 12.31418205 3.88006909
Si 50.84678649 11.22358881 11.58015557
Si 0.49561152 17.50376921 25.33526497
Si 4.68991368 24.48812093 27.34377422
Si 1.19251005 11.79865421 47.01223262
Si 3.24354050 11.65809299 45.86568504
Si 2.95491737 52.96131755 16.75468066
Si 7.66817280 15.74897679 19.78428251
Si 11.64607296 15.50389651 41.45269168
Si 49.57042085 11.78624072 18.13888059
Si 1.92366459 31.98429240 1.85073602
Si 49.24099055 24.97215742 36.09097588
Si 1.17994515 2.30384051 23.44895492
Si 15.45565960 33.98903686 21.93081335
Si 0.45372319 45.55800591 33.53868370
Si 45.27924366 10.11612879 6.98187654
Si 15.56631022 54.12786423 19.99937902
Si 16.39028477 9.73758785 31.40653663
Si 47.31758962 36.72378591 10.90217459
Si 7.07197275 8.13694334 24.60836783
Si 8.61402948 29.96350204 25.23803022
Si 47.91642713 33.21390510 24.90098616
Si 12.81518528 0.90982349 25.98450294
Si 3.42674802 35.39346460 30.38888969
Si 36.83021103 31.27163387 25.16553220
Si 54.44371259 8.53971109 32.68088196
Si 28.92377952 33.52298099 28.78199727
Si 1.28892153 20.69818989 38.40963201
Si 41.59360024 8.57246205 36.46014175
Si 46.46361064 48.81506903 15.89436069
Si 40.50084638 18.31981687 50.74521449
Si 0.60950820 33.00238730 29.88996954
Si 2.88062689 38.17717919 23.52831635
Si 53.85525767 24.46657513 18.18860480
Si 40.34749054 27.44688581 15.28191291
Si 38.75700228 32.86541724 29.69604379
Si 1.30832344 16.73287860 37.10532455
Si 43.95285223 53.50829688 39.99147488
Si 16.66288423 25.76495771 33.48275449
Si 15.74126188 52.19060648 25.42016432
Si 6.92237276 17.06868444 49.97843802
Si 49.28556946 9.73721522 34.60579464
Si 20.87390975 9.85002405 24.54506410
Si 1.54293962 8.75714671 34.28316768
Si 38.71856670 7.46753198 6.74921465
Si 6.23803901 15.67059287 5.20587286
Si 29.06762926 5.44914303 2.08606955
Si 0.49864958 14.14402027 39.67440051
Si 5.55286501 11.28032783 54.31691313
Si 4.57131897 11.61388223 24.52454666
Si 16.47799444 10.16559913 1.16404148
Si 47.18669565 15.67508247 39.18598177
Si 38.17696788 31.67779308 50.06191479
Si 16.87200099 36.83038572 45.00343589
Si 47.10472628 15.67266806 29.73358852
Si 5.06118599 3.57875696 45.25502254
Si 7.48585734 3.20402620 33.83950372
Si 17.15655284 15.69388726 22.69958618
Si 11.76123567 10.92923722 3.51439937
Si 20.37730891 15.47217387 50.28251117
Si 28.57873819 54.58465720 0.90672423
Si 46.42483084 48.39429813 4.84385286
Si 0.59992482 48.44070256 4.68083921
Si 40.88405673 11.28818699 38.25625759
Si 48.03231304 6.55683713 42.47460079
Si 53.40409521 8.09741193 4.15985395
Si 15.03969647 8.10061820 13.27203004
Si 23.10014400 4.46806136 48.31810614
Si 48.39812178 9.16987696 48.27137439
Si 53.54856341 24.20918375 5.29132184
Si 44.98490481 10.55795310 3.99374400
Si 16.29737881 40.54228294 0.76547570
Si 8.07918561 4.05457079 15.27739195
Si 45.66564024 12.27708842 40.09509865
Si 11.52270896 17.71843074 52.71576870
Si 9.73190654 25.32075898 15.26273607
Si 21.58459077 50.34849174 36.27321209
Si 19.31247579 42.33311258 51.26018144
Si 5.86595059 7.17453968 27.53910414
Si 40.50005554 14.64258240 2.52120428
Si 14.13444488 23.85323963 19.53642012
Si 1.93727845 19.96366790 17.99381094
Si 22.91816543 13.92998495 26.80957438
Si 7.67547369 45.75632452 9.53156797
Si 51.52342734 21.05945196 5.71477897
Si 27.17612645 25.19666507 30.87369992
Si 6.22653109 19.59594613 6.76867832
Si 19.86496398 3.09824101 11.44291053
Si 38.42388374 20.88444502 31.94654370
Si 37.12366850 30.85203109 11.84207038
Si 40.22762262 15.01398871 7.59032275
Si 14.68212308 12.65595531 43.97590203
Si 46.01290958 50.00572925 32.66235960
Si 28.93311698 31.87216058 26.52332187
Si 13.31748488 47.03303273 28.01974883
Si 10.23401511 5.22531531 37.56481263
Si 1.71930122 25.53252630 23.84846161
Si 15.75799636 31.98030057 23.10109298
Si 50.40655349 3.35016617 17.11487863
Si 10.32054155 27.63523893 24.98502030
Si 22.46256053 48.71916634 14.95363084
Si 51.13410263 4.94935603 31.94453972
Si 12.52022478 19.14234261 23.47660222
Si 9.99899726 35.34205175 33.06121075
Si 13.57842089 32.76594135 14.22279409
Si 50.16311729 26.97024644 49.87838236
Si 6.97124137 10.95917431 24.03972885
Si 2.22277379 39.70483647 43.62999792
Si 2.61158476 11.38464963 17.13857777
Si 54.32596507 48.22681518 28.91149777
Si 16.91487496 47.57509021 12.64667918
Si 47.53096528 22.05010278 25.68090653
Si 2.40337745 4.35034939 22.34685366
Si 45.49567583 21.93686641 13.34301890
Si 39.65150215 29.36342175 35.09791103
Si 30.73940628 16.51717282 29.53879509
Si 4.35626313 7.08133010 29.02441617
Si 4.38894241 12.62485743 50.52089054
Si 53.77447212 28.95316001 33.93859677
Si 52.19980395 37.68579830 34.91494102
Si 0.81948768 22.57279775 36.69380301
Si 3.78267248 23.87934459 37.45206381
Si 43.41191570 50.13963348 48.31820136
Si 2.54062940 14.90953823 27.82255097
Si 43.33592073 17.72758649 47.53281115
Si 9.42523070 11.02913336 2.97137637
Si 9.69130024 7.80428616 41.64503044
Si 4.56115608 33.42533737 44.53580157
Si 12.50732533 26.59576953 40.58517790
Si 1.54749622 7.05441350 2.57099790
Si 14.59210977 28.23078433 39.30973326
Si 35.74468625 45.97049205 30.93760822
Si 2.11530102 8.15272968 5.69384491
Si 12.11292755 45.04308821 44.95079974
Si 2.99393308 28.75341857 7.24116753
Si 11.73769530 12.04781271 40.09875565
Si 48.27570949 12.55995316 38.62441621
Si 47.11696516 47.28329530 39.71167464
Si 53.07858521 10.54724248 32.69171234
Si 37.08035217 8.71353251 51.44871547
Si 27.62562605 27.13794203 23.68619517
Si 48.71020570 0.02983836 38.39560480
Si 53.39172844 12.55960747 4.01752492
Si 20.75526686 8.15778843 26.50200675
Si 14.21088528 5.57990249 0.01574635
Si 9.44245574 18.31234394 42.19503984
Si 28.95059510 8.79070027 26.02901311
Si 44.15572412 19.72747900 48.97364946
Si 39.49464759 20.02795639 44.08268131
Si 52.32205188 3.66781448 22.80044002
Si 21.71827231 8.55890212 53.89858015
Si 21.04688845 30.08364450 49.28863109
Si 43.89527312 8.00266227 21.37089678
Si 10.28173167 39.48346439 13.67770988
Si 14.73891769 39.80979657 2.39848134
Si 26.08304618 23.98097180 47.55887986
Si 16.28555056 43.33333959 52.57848622
Si 29.42257620 52.61484287 1.74184961
Si 1.10915721 10.50537361 10.23025209
Si 6.58313736 22.94613592 5.44362107
Si 1.23303003 9.68094062 23.79571713
Si 26.60831162 34.19471465 52.54640294
Si 27.06221384 18.32482888 50.30462992
Si 41.66861254 29.61744519 46.91191314
Si 53.84760493 26.24957098 4.55866483
Si 45.14527650 34.46031759 23.37847227
Si 42.75853013 21.48391516 54.24497358
Si 44.54107549 32.11408069 40.26017805
Si 4.24739261 31.52848514 13.55410995
Si 4.40330541 27.97003761 50.92852934
Si 48.64179081 33.36238334 31.03436253
Si 5.30400995 32.67279959 11.80933345
Si 44.32068556 20.49198814 16.01215865
Si 7.78285587 35.82189338 24.02677565
Si 11.73865937 28.28281868 13.43454657
Si 17.82452983 45.00305729 19.59866046
Si 30.59817160 36.71869613 41.19168266
Si 42.02567042 27.69101260 0.94157056
Si 0.31883195 15.99411858 17.66982331
Si 6.85752099 51.70844325 16.35400216
Si 13.26753495 3.94003960 47.54812996
Si 2.42847431 13.49681668 20.09439589
Si 16.08506113 9.05971113 19.64017698
Si 0.72030860 37.42971452 32.26976836
Si 48.55649351 15.97514035 31.68777207
Si 50.34682491 23.98734530 32.25681628
Si 46.36788496 8.83830689 19.15251528
Si 15.26515443 31.39292215 40.58411151
Si 4.58536473 16.18928264 35.14727681
Si 49.42780526 20.07609645 34.33726098
Si 0.75812960 11.44182502 37.09623403
Si 16.94545856 41.24727825 49.57784187
Si 24.48968788 23.81912881 28.25006965
Si 53.30943061 47.28905845 22.35836398
Si 5.41446105 21.25089065 23.49862573
Si 8.45274741 8.07917717 43.51396942
Si 42.67190960 49.28672048 36.25739698
Si 14.75852130 26.39663394 46.12533018
Si 26.79466427 27.84048518 39.92050330
Si 15.75239450 46.46641620 44.29276571
Si 51.13240827 22.43216511 28.20729747
Si 15.72632789 27.59356825 37.15543536
Si 4.50379998 7.36868102 38.61473308
Si 44.99965294 22.28502284 43.54460605
Si 49.09090496 13.12467548 20.44739422
Si 48.70894806 49.49689007 40.51384625
Si 5.86883838 52.98485086 13.67527301
Si 47.04903933 41.18279051 40.92822641
Si 53.59051765 14.68054243 44.41351906
Si 6.00566966 11.92398935 48.35208368
Si 18.20264454 25.66057790 5.68179766
Si 50.44134587 35.17070554 46.29724388
Si 1.26486545 26.82437138 31.40217917
Si 2.96304415 29.24447205 54.14803875
Si 42.27563723 49.23844116 50.62582670
Si 51.86068734 9.79388056 51.55821046
Si 4.47230458 16.88848984 7.89412807
Si 13.63517110 28.69300535 49.27383167
Si 0.97698562 24.40612792 49.61264368
Si 11.14424116 39.79700661 35.11324005
Si 22.97775717 36.85422423 37.37843672
Si 53.10105967 38.31626915 32.33267161
Si 6.80351192 28.05390443 48.78489454
Si 39.59092871 20.92699492 7.37886378
Si 8.83800357 36.34182063 48.98362382
Si 53.17513030 30.09810339 51.41639500
Si 50.66177036 20.66931078 48.15596610
Si 13.30857760 21.35394094 6.41090888
Si 28.33358583 49.80426189 44.44429971
Si 23.59878693 47.06295392 22.58825754
Si 10.73278787 2.02056630 53.72821905
Si 52.65583002 14.50093117 1.10653164
Si 10.40612226 43.35929834 23.54037259
Si 1.41826393 1.57977882 15.34178271
Si 1.55544375 30.23291374 8.73823111
Si 17.26331230 39.92530451 41.85269455
Si 15.57892607 37.64180351 52.86671504
Si 12.29674897 34.33534532 20.65873333
Si 18.26470697 37.48634945 52.97270318
Si 14.03841425 10.11546825 8.12721353
Si 49.55405241 1.60398315 18.46932436
Si 52.26609701 19.34042197 16.20580388
Si 22.44632867 39.14474290 10.83688516
Si 27.19062936 29.81095684 43.33904816
Si 47.99661142 37.45814697 5.74912147
Si 11.51216687 20.08570939 16.39374528
Si 44.98641681 21.62238210 18.78468073
Si 10.14021737 26.21214296 8.52827253
Si 53.22386438 28.37310733 25.41174457
Si 41.68124735 14.99177135 21.72906900
Si 18.27473444 33.05386987 8.00644275
Si 1.27865813 38.32628975 15.17307190
Si 38.23596171 24.86558531 7.74232304
Si 32.79165364 41.43422502 16.45801098
Si 2.74861500 28.44382576 21.31290744
Si 4.07176494 9.24154300 20.70950513
Si 50.37877084 39.33594193 25.47246872
Si 50.26608348 39.78582058 3.86847192
Si 14.63505335 5.64274298 5.05043081
Si 6.50980788 21.26305034 2.56603991
Si 53.71562002 19.69759197 38.93927132
Si 3.24622273 35.84638743 5.24543444
Si 48.11074065 36.68625602 35.13071179
Si 39.53398203 28.19184886 21.85316811
Si 24.50615790 30.47373620 22.36848240
Si 11.57598609 38.29633127 20.39639035
Si 3.43727691 18.02860742 17.77064890
Si 47.69053730 18.53814559 25.96117645
Si 3.01155041 34.78016146 16.03947190
Si 13.24720746 45.35987252 32.66907437
Si 30.87022815 29.57482167 16.67672226
Si 40.11893278 17.26142323 29.80900011
Si 3.32676875 50.67505547 33.48663068
Si 36.11304088 38.06599827 28.94831185
Si 32.85225277 37.13256106 54.29798251
Si 11.08789563 38.10379780 45.87645628
Si 5.75594019 15.09363640 20.59622319
Si 21.28189174 22.28979193 16.52723838
Si 54.08230175 38.21240231 51.39308708
Si 47.83513009 45.77135748 23.00218548
Si 54.27009586 38.93294495 20.33576280
Si 8.56685425 22.01361166 36.69386152
Si 48.67630957 45.45314951 51.65648606
Si 46.83268498 20.19780482 18.00698110
Si 9.76156686 27.25348417 12.55704392
Si 1.59758800 16.97632496 47.84731226
Si 42.73208217 26.42854563 53.91733434
Si 16.66961136 36.50223607 24.19885632
Si 4.99384852 0.86810562 8.49216303
Si 6.19065255 47.04093003 53.01521841
Si 4.86210820 24.61683143 45.51323579
Si 50.40751852 43.04173683 25.49230803
Si 6.35108539 39.14562729 41.80388773
Si 47.73783488 10.94288302 4.12831456
Si 46.44630317 30.71152625 43.50639342
Si 52.62190210 18.37981130 2.64895366
Si 51.67665170 18.04284208 54.57373102
Si 8.02613460 29.89654292 42.30430999
Si 13.50945069 21.51987084 46.17296302
Si 10.26755431 22.01158709 33.36504621
Si 14.80530802 52.95917502 47.74521194
Si 46.50390998 48.49152293 9.18481476
Si 4.43453143 9.40822123 40.34587512
Si 31.15409599 38.72631061 7.46832636
Si 34.31358581 16.48526409 32.80676580
Si 0.11906177 45.23817533 1.66007478
Si 49.98542459 31.11063762 0.40867413
Si 21.47424472 48.37088104 25.12959574
Si 37.19455782 29.84783501 34.01558970
Si 5.74311159 48.39972105 50.91497033
Si 40.51517950 49.60932954 42.57084902
Si 9.01503463 19.27669435 25.99613737
Si 46.54773443 26.44017839 46.36484045
Si 9.97619046 42.81237307 12.28480627
Si 18.76089282 47.37849729 1.36012868
Si 18.30023183 23.75710652 52.71110995
Si 53.38970576 20.19472941 9.09848568
Si 0.27056544 35.68858025 50.99220028
Si 7.13533628 51.16048277 41.28687289
Si 53.77258499 23.95136007 13.86154105
Si 49.95391346 47.02556162 50.60023619
Si 23.86792429 6.94856693 1.96356939
Si 1.12901528 49.29921485 50.52204962
Si 54.76142663 53.02164560 38.54388474
Si 8.63317821 9.71658322 10.11255411
Si 39.09849110 26.38766275 48.18379921
Si 10.24537397 28.38068753 32.59377901
Si 48.46470434 27.19672522 21.92152419
Si 0.32725172 30.36159443 30.14020714
Si 7.24557961 28.83837258 14.15082335
Si 51.14532546 23.95888884 6.29779822
Si 15.46131902 17.78020911 3.76199400
Si 44.11121545 29.63554297 47.87134676
Si 14.37779616 35.52035104 23.65346221
Si 14.20695375 45.66947390 39.29777159
Si 15.18423112 33.32698494 7.18545431
Si 49.64963761 21.00661516 17.83186146
Si 18.05880706 42.05418124 22.11850044
Si 6.76132858 9.76060147 20.82100602
Si 11.93546151 9.51088335 35.10245707
Si 44.98356773 32.93525237 44.64023528
Si 36.96777040 32.31802969 27.52021008
Si 10.44858327 36.49422732 18.92048576
Si 11.77477414 34.29586684 26.47291330
Si 12.87347733 14.78707387 14.51780970
Si 14.20096842 46.36515626 30.50848510
Si 1.05344046 7.87709710 19.98826787
Si 53.64765017 13.69247710 17.83180984
Si 46.32505455 45.74919679 46.70492904
Si 45.50293586 51.22101047 47.18016974
Si 15.98107490 43.25177685 40.08919567
Si 1.31975096 34.69417270 17.99811992
Si 28.59360731 30.23988057 16.25973364
Si 5.46065738 7.94559836 16.22305171
Si 8.08796883 20.68681062 32.47190600
Si 45.75950652 35.60792659 30.30883509
Si 1.15071472 42.35497174 10.54211902
Si 27.48376776 30.96117923 31.40689983
Si 51.42809049 15.81862650 23.41346811
Si 16.84222193 34.60880475 33.26276905
Si 13.71673134 3.83731406 11.30873012
Si 46.90846245 52.58909168 30.05509170
Si 5.51049394 2.16366680 34.66891432
Si 19.04533617 25.21686258 22.24119738
Si 9.31215209 34.56467362 35.40050978
Si 13.92643983 36.22899512 31.30531580
Si 19.04184451 37.51594341 39.82869617
Si 3.70665633 35.07609253 40.30637804
Si 18.60716324 30.31264563 24.71279716
Si 7.87072186 46.44086501 34.10217365
Si 41.68407816 22.93086771 41.09056452
Si 45.97600449 27.32088874 44.21332728
Si 5.69742840 13.02198259 46.19966121
Si 44.01436068 50.91731903 24.35739965
Si 29.56343460 24.44453747 49.88568704
Si 53.96513264 37.95600061 27.52109847
Si 0.08377873 34.66392151 44.29401100
Si 50.72015907 30.01813597 50.94093311
Si 10.02459012 5.73476982 40.85769371
Si 51.31054813 30.84329715 43.48098768
Si 35.65043586 15.92531843 30.25578370
Si 16.65127006 27.24789296 52.12795141
Si 50.31452227 48.48199445 42.61844949
Si 9.91336828 44.00562092 38.03111300
Si 48.26495402 26.60759397 43.84128632
Si 12.49312213 45.43806325 52.61127969
Si 40.10126508 46.36834934 53.44113534
Si 11.10657617 50.64407948 8.71345532
Si 10.26845746 42.88354943 17.18740379
Si 47.73438000 47.11827145 17.75851522
Si 4.64856809 46.33743117 4.65435061
Si 21.81382536 36.07422191 13.92891012
Si 5.22016350 32.19719046 42.41700756
Si 14.77044442 47.99914056 12.07572773
Si 39.88100428 39.36531310 40.10505121
Si 53.17398803 45.03519142 54.10265862
Si 8.34994275 26.02909065 4.68951425
Si 6.52641129 0.41024001 4.67006985
Si 53.58892933 11.42495163 48.28075687
Si 51.52418078 29.82388057 1.69486498
Si 52.03333630 35.65954427 12.70388547
Si 7.12425744 1.27268510 20.26350812
Si 18.70106602 21.92828764 5.07799345
Si 53.60242617 30.31909592 40.68192635
Si 9.05390308 35.98688324 51.36507562
Si 12.45499018 37.91436493 28.08656783
Si 9.15764726 15.00984760 9.80013807
Si 22.21788619 5.68644149 51.31269537
Si 16.96732255 53.85035615 17.52569738
Si 29.06163866 38.69880052 2.30190405
Si 13.94378203 54.28912028 22.07441087
Si 47.04581404 39.65091403 54.30133055
Si 41.49636742 31.02487867 0.30105490
Si 17.36179623 46.78397986 16.16919695
Si 47.84054011 38.74635167 23.67284209
Si 2.41708665 34.15858599 3.51810749
Si 48.63431597 37.76187749 19.57791107
Si 45.28160398 37.24727287 14.28056040
Si 18.26898375 33.00071632 5.40610769
Si 46.68510518 25.11912486 22.61177517
Si 5.97572521 19.88763172 13.27652828
Si 12.58848034 43.88836901 30.87559956
Si 23.44326254 45.89714198 28.60396478
Si 10.05611933 42.53197957 25.79463642
Si 38.90464125 50.48802191 9.08285547
Si 31.24259576 1.56351462 0.94694420
Si 4.30509767 44.85410954 43.07446720
Si 0.57288489 42.27126679 15.36127115
Si 19.37624609 33.60642441 15.56785135
Si 12.01304972 29.36674396 18.78545275
Si 1.52077051 29.92737499 36.21507828
Si 1.95457265 52.21117063 0.76473654
Si 5.32128646 35.67784641 33.05019617
Si 8.55167541 3.11613760 30.06122851
Si 10.21888656 43.14535957 31.83099167
Si 48.27452811 30.04331048 16.83346533
Si 2.25103662 34.73049625 20.57344106
Si 48.06817658 53.77709250 27.37228780
Si 52.88667658 23.45743165 51.68712412
Si 0.37189919 29.54343728 22.61174501
Si 54.01194365 45.78036197 30.55156544
Si 44.98067568 30.75038343 30.24693926
Si 9.07456639 2.52767635 52.10428347
Si 27.04182258 35.04656680 7.33025309
Si 28.27340979 39.66674240 21.47742854
Si 13.08879266 48.22872009 39.50385717
Si 7.08018988 40.53460153 49.11820058
Si 4.85256299 6.02838401 6.55984646
Si 44.03300104 51.57343179 54.56701999
Si 54.00800702 44.76888812 42.34545777
Si 5.72888050 50.85866729 49.93482711
Si 0.75386968 44.37527810 45.99791447
Si 9.75366414 52.66018186 16.39804650
Si 10.70655077 37.45856677 15.01254726
Si 14.01705219 33.60128409 29.19686043
Si 10.40013934 45.66558450 24.16917012
Si 50.19592090 12.30170320 43.93506663
Si 4.18445352 52.63652975 32.31706913
Si 5.59888555 42.01063220 43.32987431
Si 40.55963872 20.34491376 49.52031914
Si 34.37443283 1.67753007 49.81560111
Si 52.75575633 28.52393720 0.16618762
Si 50.30843755 39.36953790 1.45926580
Si 47.75328172 51.36797833 32.32127268
Si 41.46683209 43.30121262 9.79111010
Si 19.66052789 25.86020962 36.08366269
Si 11.39600323 51.48676575 37.01527777
Si 19.97777590 10.30651714 54.21713857
Si 52.74343346 45.19081043 44.40603255
Si 12.20330764 51.96014945 50.77733062
Si 20.52084127 52.62729449 37.51380929
Si 54.41932478 42.18330581 45.24579368
Si 16.28962083 27.91082575 2.00695281
Si 46.76436646 33.15379224 21.06967935
Si 36.23086243 46.60332374 17.71108668
Si 26.51251747 30.75517676 3.36507231
Si 48.32671851 35.81235960 30.65074366
Si 12.74618567 32.44419644 11.57430390
Si 2.75153217 54.34372989 33.26573244
Si 33.11640327 47.71322761 23.50022999
Si 42.74675315 34.06633249 30.07507358
Si 0.53014824 50.99232145 11.84497555
Si 4.27247491 49.72483485 52.64645588
Si 8.32472912 22.44875537 11.87294321
Si 2.01027117 43.06358166 21.64182279
Si 20.48553768 45.41279611 4.84702137
Si 48.28173471 7.49777962 25.06229948
Si 39.44554230 11.42521514 20.71121153
Si 35.60701107 27.46343777 10.54394891
Si 38.04339642 39.52264382 2.16388057
Si 12.37052127 43.29017207 5.04606751
Si 12.35719242 37.36243726 2.43490848
Si 13.69462220 13.50496153 51.48183892
Si 6.23229407 10.79079658 27.87377301
Si 12.43817156 5.07647485 15.90029306
Si 51.97752765 46.63209682 32.74042320
Si 3.56138363 52.88527220 19.13581695
Si 14.48738989 9.71686707 43.65702233
Si 30.94294099 47.30399186 29.32574060
Si 39.49905778 19.32655922 36.83307500
Si 53.75642789 36.98616840 40.49777958
Si 48.82098144 2.39636546 31.88097910
Si 43.65302745 49.90622279 42.55728336
Si 46.61175791 24.52493991 26.57252080
Si 4.40414724 42.47019109 19.89845707
Si 51.57779429 13.89946731 40.96657184
Si 26.77866531 51.03391273 28.64562025
Si 2.20465356 11.66886079 14.31677450
Si 3.90998075 42.51392980 41.27285086
Si 23.79456443 32.91060530 20.75042034
Si 23.00336836 37.50214800 32.79999362
Si 46.62863796 7.23719174 27.66550225
Si 45.00393235 41.65642089 26.64657949
Si 6.80896690 37.66705699 32.45192987
Si 34.58213784 43.90988527 28.12544936
Si 29.35977641 53.27620620 22.49683570
Si 53.25092937 8.83852195 39.71164101
Si 23.53273701 49.54474242 34.53464119
Si 36.53206001 45.66125802 7.61196789
Si 51.85433283 19.17673030 26.61610074
Si 44.41085012 31.72337261 10.28955394
Si 20.58233854 1.06805536 38.23897485
Si 23.63716789 29.03840773 35.76098375
Si 39.81774430 41.36688873 34.09651288
Si 34.07500297 4.44170067 46.59999173
Si 50.81160335 14.52929980 6.15499374
Si 53.93997040 3.51541186 53.00496874
Si 3.46321453 8.67487948 36.85339053
Si 48.31200383 41.44484928 36.54679433
Si 49.48024217 45.95807550 29.54657679
Si 41.14590397 41.26460570 37.22308102
Si 50.90412723 0.49826226 45.94416441
Si 4.41499139 20.10674222 11.32009558
Si 52.41395374 54.16652303 38.13607509
Si 3.20634161 39.79187054 47.58249525
Si 20.15612723 47.78597324 43.12269977
Si 49.70243208 49.61389042 8.02889912
Si 38.28588109 2.90553042 24.54037532
Si 44.76906432 30.44469062 14.11313360
Si 51.33094651 43.23675593 12.47569357
Si 38.53974464 52.69586356 46.48804330
Si 32.16379268 46.46014781 52.16856033
Si 4.43849538 21.60830988 37.28637679
Si 49.88206539 39.93250340 8.31669331
Si 53.72467562 51.57542469 44.02429698
Si 6.10171375 10.88728522 45.27893392
Si 4.00792083 47.49554843 9.09072183
Si 9.76576259 5.58478082 31.79193345
Si 18.43060590 4.07101206 46.08937046
Si 22.11610743 45.83870460 21.49354581
Si 11.20383030 9.13559397 51.13770531
Si 32.14230617 6.37250170 30.53344194
Si 24.48786115 39.58241283 24.82040562
Si 7.54811503 0.98399116 13.73955189
Si 5.32809738 50.78460615 10.43726786
Si 19.42161236 5.34234914 39.40106941
Si 17.49496698 44.23765714 1.12941222
Si 15.35620430 50.35457155 14.79902929
Si 21.91003136 1.85622165 21.51438730
Si 47.08990692 4.12615617 45.12250576
Si 14.43640487 37.38700823 22.26014328
Si 46.25784133 45.23025690 16.01977155
Si 50.15267692 52.05135235 6.28322121
Si 6.03283599 24.09007096 51.59248849
Si 53.27330473 5.03165016 3.96160674
Si 28.70032455 15.60801470 2.20177754
Si 23.76912941 47.66689455 31.68812401
Si 17.03858444 51.96103987 16.24580308
Si 3.33010922 29.97063026 47.51016452
Si 21.37426901 20.03531254 36.04049306
Si 44.22364531 27.95070986 13.04752608
Si 21.07591964 41.02545901 13.65738227
Si 1.50715312 29.00643886 13.55979492
Si 16.93567226 5.74547679 13.35595591
Si 0.87500604 13.63644219 29.00790578
Si 16.01151547 39.39526308 16.52039766
Si 2.49229961 49.88759730 4.31513736
Si 16.79594425 41.99306618 34.58143341
Si 22.53875428 43.63057126 34.25484972
Si 12.16580654 10.35522509 32.90247255
Si 52.35978052 44.54324802 24.45543492
Si 51.24950138 0.93214957 9.71796276
Si 49.07076791 18.86655094 42.13168245
Si 10.25018292 12.72659535 18.92234399
Si 37.58611936 13.92394267 13.60893946
Si 52.76477671 1.64722855 6.16723440
Si 12.54362042 4.71697276 3.83066235
Si 29.15326868 6.86673714 37.80532065
Si 45.32223002 38.73401565 25.48292350
Si 52.55122971 22.43909032 46.45580680
Si 54.62453269 3.76907713 34.66871193
Si 13.31788370 44.19046003 21.25702792
Si 15.68321295 7.40679556 32.44472398
Si 9.27336868 1.53259337 38.88427749
Si 51.87376106 0.84306918 22.86223307
Si 2.28429786 18.98528699 36.83110366
Si 50.76984727 4.72015480 48.55863327
Si 1.98015073 26.25253515 36.16510649
Si 47.50759417 21.55551194 51.15621672
Si 54.71801975 28.57070015 28.63176591
Si 41.97274361 42.48891626 43.66572588
Si 54.59549530 23.69841275 10.73944121