  9.6956474e-01   2.7785507e-07
 -1.0811816e+00   1.4993562e-05
  3.8541710e-01   6.1847942e-07
  1.3382206e+00   1.5782084e-06
 -2.8388498e-05   8.5153431e-07
  3.9114314e-03   3.9246206e-06
 -1.6309099e-02   6.1406208e-06
 -1.4487483e-01   4.1942094e-05
 -4.6981016e-01   5.0474605e-06
  2.6819599e-03   1.9900635e-06
  2.0477572e-02   2.8717077e-06
 -8.1081308e-02   2.8631825e-07
 -8.7661494e-05   1.1017243e-06
 -2.2181436e-01   1.6178184e-06
 -2.8606099e-03   1.0370655e-05
  2.2559981e-01   1.6835382e-05
  4.6981248e-01   7.6042812e-07
  2.3694265e-05   2.5584652e-07
 -4.4770885e-01   7.1264135e-06
 -1.8436981e-03   7.0510359e-06
 -6.6030733e-02   1.5426565e-05
 -4.6474056e-04   3.8981848e-06
 -7.1730683e-06   7.4886138e-08
  2.1674265e-01   4.1099379e-06
  6.7708798e-02   2.2412747e-08
 -9.4696186e-02   6.9500670e-06
 -2.9736295e-06   2.6537535e-07
 -1.2821721e-06   1.1057430e-08
  1.0688043e-02   5.2247298e-05
  8.4532544e-02   3.3915583e-06
  9.0353715e-06   2.9237251e-06
 -1.0293599e-06   8.6579996e-07
  7.4131799e-07   2.7540498e-06
  4.9861228e-06   1.8779490e-07
  8.0666869e-06   1.1873892e-06
  6.9277608e-06   2.3073580e-06
 -1.2026209e-06   5.0955373e-07
  1.0691578e-05   3.2733310e-06
  1.3935400e-05   4.6309304e-07
  5.9814001e-06   1.5659975e-06
  1.6917593e-05   5.5682654e-07
 -7.6439778e-07   1.1618858e-07
  7.9446090e-06   2.0405621e-06
 -1.5226411e-06   5.9887029e-06
 -7.7638533e-06   1.1456389e-06
 -2.2886938e-06   8.7428816e-08
  2.9032747e-06   1.0702845e-07
 -1.9572542e-06   1.2706812e-06
  1.0526628e-05   2.0575158e-06
  9.5106971e-06   2.6768213e-08
 -1.0084974e-06   3.1213210e-06
 -2.8013659e-05   4.5394035e-08
  1.5059567e-07   1.2523928e-06
  1.0737896e-05   1.1155956e-06
  1.3477452e-07   1.3475669e-06
  1.1472283e-05   1.5514375e-06
  8.8653269e-06   2.0072123e-06
  4.1373996e-06   3.4947568e-06
  7.7445875e-06   1.3634143e-06
 -1.0667010e-05   6.8355934e-07
  5.6273047e-06   3.1827738e-06
  2.0967846e-08   5.3361578e-07
  6.3339826e-07   1.2416150e-06
 -2.1216185e-06   1.9798174e-06
 -4.7668414e-06   2.9138786e-07
  8.4201747e-06   2.7565404e-06
 -2.5930449e-05   1.3801038e-07
  1.7110718e-06   4.0406576e-07
 -6.0993402e-06   8.3217321e-07
  8.7307535e-06   1.1545062e-06
 -3.0090584e-06   1.7135595e-06
 -3.1284196e-06   4.6442605e-07
 -6.4155611e-06   1.2252565e-06
 -2.1223195e-05   1.5317664e-07
 -7.0172350e-06   1.9582553e-06
 -1.8845572e-05   3.5834935e-07
 -9.0981048e-06   4.0047840e-07
  6.8470340e-06   1.6186902e-07
  6.1785704e-06   2.6892112e-06
 -1.1624992e-06   3.7491910e-07
  6.4396522e-06   2.6633379e-06
  2.2430739e-05   3.5635578e-06
 -5.1824386e-06   5.6534975e-07
  1.6599338e-06   1.1991018e-06
 -1.0188596e-05   6.0471382e-07
 -4.4647373e-07   2.0813737e-07
 -7.6387084e-07   6.4944339e-07
 -6.1182523e-06   3.9702013e-07
  1.1968214e-05   1.3662594e-06
 -2.8256043e-06   2.0932163e-07
 -1.9300926e-06   4.3054865e-07
  3.6688498e-06   1.0910212e-06
  9.4453744e-06   1.9224301e-06
  3.4711918e-06   1.4735096e-07
  8.7733297e-06   1.1077067e-06
  2.1019328e-06   1.3670166e-06
  3.4682005e-05   1.2608606e-06
  1.1051716e-07   2.2898334e-06
  2.0750858e-05   6.0074697e-08
 -1.3955937e-06   1.1071863e-06
  6.9692072e-07   4.7563891e-08
  9.0558633e-06   6.2428410e-07
  3.7604448e-06   2.0105584e-07
 -8.8867600e-06   2.2938566e-06
  1.6240634e-06   1.4276436e-06
 -1.1340610e-05   2.4979631e-06
  3.2055941e-05   7.9197252e-07
  3.6311271e-06   4.5453507e-06
  2.8452203e-06   1.4174724e-07
 -8.5065094e-06   1.9855449e-06
 -1.3061574e-05   1.4664279e-06
 -4.7651929e-06   5.0135264e-07
  1.5132222e-06   2.3537489e-06
 -5.6123235e-06   1.9005451e-07
 -2.5174370e-06   1.6017808e-06
 -2.2848114e-06   7.3316829e-07
 -3.7428961e-06   2.1284980e-07
  1.0372135e-05   8.0338810e-07
  2.0624138e-07   4.7501283e-07
  8.8593936e-07   2.1152489e-06
  2.0741322e-06   1.7720849e-07
 -1.0968442e-07   2.0335829e-06
 -3.2623468e-06   1.6586892e-08
  4.1272406e-07   9.9718761e-07
 -1.4873001e-05   4.8551237e-07
 -5.0600306e-07   7.0401137e-07
 -7.9939105e-07   1.6826965e-06
  4.1831236e-06   1.8724279e-06
  1.6882350e-06   2.0799312e-06
  1.5474764e-06   6.8472406e-07
 -2.2696247e-06   1.2655551e-07
  2.4497201e-06   1.6607429e-06
 -1.6648939e-05   4.8276911e-07
  2.4072861e-07   2.2029565e-06
 -1.1531350e-05   5.8171844e-07
 -3.3305132e-06   6.0812897e-07
  3.5224116e-06   1.6443884e-06
 -2.3314580e-05   2.9628967e-07
 -3.1226000e-06   1.2723406e-07
 -1.0262605e-06   1.2141059e-06
 -1.9383640e-05   3.2793685e-07
 -1.5236848e-05   2.9920316e-06
  5.1164898e-06   2.9490360e-07
  6.5819390e-06   5.4224722e-07
 -6.3625494e-06   1.1112419e-06
 -3.1100055e-05   3.3659288e-07
  6.3608604e-06   2.6763769e-06
 -9.6974611e-07   3.4531689e-07
  3.3914205e-07   9.3623321e-08
  3.5083735e-06   2.7601186e-07
 -7.8868125e-06   4.3216776e-08
  1.5814912e-05   5.8501115e-07
 -1.3796357e-06   1.0675871e-07
  2.2548179e-06   1.4335491e-06
 -2.8520290e-06   2.9767159e-06
  3.2925986e-06   3.9890818e-07
 -5.3483330e-07   1.0529412e-06
 -1.7052720e-06   1.0568633e-06
 -5.5109041e-08   2.8514294e-06
  1.1092886e-05   1.1757585e-06
 -2.4807937e-06   4.3359955e-06
  9.9457020e-07   1.9678937e-07
  7.4099826e-06   4.2070164e-07
  3.7883508e-06   8.5203919e-07
  1.2561556e-05   2.0647936e-07
  8.1955989e-07   3.9391551e-07
  3.0825724e-06   9.9289502e-07
 -1.3608846e-05   2.0780699e-06
 -1.3748650e-06   7.8030416e-07
 -1.2296895e-06   3.1008898e-07
 -9.2807213e-06   5.3584199e-07
  8.2047418e-06   2.0327004e-06
  4.0804734e-06   1.6631635e-06
  2.0729308e-06   8.6409261e-07
  1.0013413e-05   3.8726807e-06
 -4.4305310e-08   1.2501301e-06
 -2.0230271e-05   1.5852721e-06
 -9.6418489e-06   1.1883277e-07
  5.9072931e-07   2.5462125e-06
  4.4857015e-06   7.9272337e-07
  2.9056011e-06   4.0768040e-07
 -1.1656783e-05   2.6688795e-07
 -6.1041328e-07   3.1495284e-07
 -5.9229535e-07   3.1128599e-07
 -1.4123922e-05   6.0905637e-07
 -5.1428222e-05   2.1428039e-07
 -3.0995543e-06   1.5854336e-06
 -2.8503111e-06   2.7823296e-06
  3.3422448e-06   1.9837137e-06
 -2.1617685e-05   4.2596238e-08
 -1.1540138e-05   3.9230807e-07
  3.9028869e-06   1.6970422e-06
  4.3936684e-06   1.2199051e-06
  2.1021924e-06   3.0414600e-07
 -5.6592062e-06   1.6548850e-07
 -3.3454780e-06   1.2545436e-06
  1.7492135e-07   1.4583580e-06
 -1.1908181e-05   1.2707281e-06
  5.2740570e-06   5.4692856e-07
 -2.6910033e-05   4.8605517e-07
  4.0810287e-06   1.4712348e-06
  3.5379001e-06   2.8896463e-07
 -1.3231930e-05   2.3086600e-06
  9.1680868e-06   1.2690452e-06
  8.2280376e-06   3.2088289e-07
  4.5296324e-06   2.6879292e-07
  3.2581395e-06   1.2186383e-06
 -1.4807363e-06   5.8321712e-07
 -1.3843070e-06   2.4149756e-06
 -7.1516251e-06   1.3329009e-06
 -1.4949951e-05   1.5824884e-07
  1.1600589e-05   1.0768667e-06
 -1.6421471e-06   2.4558885e-06
  1.2890838e-06   3.9288159e-07
 -1.5778404e-07   7.5809658e-07
  3.8063538e-06   1.5458044e-06
 -5.3545818e-07   3.8957035e-07
  2.9261043e-06   4.7102770e-07
 -4.2417942e-06   3.3847201e-07
 -6.5716354e-06   1.4254899e-06
 -6.6337670e-06   1.1604698e-06
  1.4061497e-06   1.4083764e-07
 -2.1371197e-06   2.0529560e-06
  6.5823037e-06   1.9139136e-07
 -5.7362663e-06   5.6294505e-07
  3.8200851e-06   1.8253071e-06
  3.5894700e-05   4.3773846e-07
 -3.7749112e-06   1.2893772e-06
 -8.3067221e-08   1.1844340e-06
  7.5956859e-06   6.2885198e-07
 -2.4376534e-06   2.2553111e-06
 -4.5763997e-07   1.5453287e-07
 -4.2263408e-05   5.8454305e-08
 -1.0656841e-05   1.9696657e-07
  1.1841818e-05   5.4817338e-07
  4.1171611e-06   1.4824491e-06
 -2.7808353e-05   2.6322792e-07
  1.0211169e-05   1.1655122e-06
 -2.6148413e-07   1.9101292e-06
 -3.5249925e-06   3.2333300e-08
 -8.0683858e-06   2.0861394e-07
  7.0121578e-06   8.5885723e-08
 -6.5107388e-06   1.9001341e-06
  8.8201710e-07   2.3356142e-06
 -1.4800281e-07   5.7879458e-08
 -9.7761597e-07   1.1706665e-06
 -7.3406604e-06   2.0504358e-06
  7.9903029e-06   1.5224527e-06
 -1.6201883e-06   2.3199646e-06
 -3.1142400e-07   9.9107103e-07
  1.8951857e-06   2.1146959e-06
  2.4340752e-06   2.1872704e-06
 -7.4720998e-07   1.9758238e-07
 -2.4472879e-06   1.6116185e-07
  1.2530390e-06   1.9915808e-06
  8.3134200e-06   4.7084146e-07
 -6.7246065e-06   3.5532871e-06
 -1.5046361e-05   2.2492484e-06
  8.8273322e-07   1.8868183e-06
  1.0004744e-06   3.2905812e-06
  3.5306746e-06   1.7204585e-06
  6.6921002e-06   9.3478270e-08
 -2.4443193e-06   1.6920369e-06
  5.9496256e-07   1.6543403e-06
 -1.0148730e-06   4.1591312e-07
 -7.0224864e-06   1.2736750e-07
  5.2386458e-06   1.5916754e-06
 -2.9187540e-06   3.2664235e-07
  7.8317640e-07   1.6148850e-06
  1.2161061e-06   2.0153238e-06
 -4.9166271e-01   1.4225974e-07
 -3.6645138e-03   1.0275668e-06
  1.7893028e-01   1.3532023e-05
  1.7477220e-02   9.1853724e-07
 -1.0253567e+00   7.6320276e-07
  1.4951873e-01   1.0735835e-05
  3.0303710e-05   1.6825594e-06
 -2.5194088e-01   2.5775473e-05
 -9.5708594e-02   1.1540180e-05
 -1.7986058e-01   1.0286192e-06
  3.6163819e-01   2.0809507e-06
 -1.9392288e-01   3.4098809e-06
 -2.3338127e-04   1.3396386e-06
 -7.3957391e-02   1.9625047e-06
 -3.0570951e-01   3.1063178e-07
  2.0581818e-01   3.1096909e-06
  9.6484256e-04   8.6987086e-08
  4.9045839e-06   2.3194586e-08
  2.7376404e-02   8.0983409e-07
  4.2811760e-01   2.2676772e-05
 -3.5509089e-01   1.6113407e-05
 -6.7625567e-02   4.2652911e-07
 -3.8347931e-05   9.3121514e-07
  3.0704861e-04   3.5863029e-06
 -6.4973260e-06   2.2295621e-06
  9.1013134e-02   3.0411202e-06
 -7.9100586e-02   2.6284628e-05
 -5.1874522e-06   3.6623919e-06
  1.8028921e-05   9.5849691e-07
 -5.5016244e-08   3.2447360e-06
 -2.4560703e-07   6.6844945e-07
  9.8155970e-06   7.6553476e-07
 -1.7877744e-06   7.6189946e-07
  7.2383682e-06   4.0306859e-06
  2.4393008e-05   2.9797657e-06
  1.7608121e-05   1.3210361e-06
 -6.6721791e-06   2.5926553e-07
 -3.3542956e-06   2.2370937e-06
 -6.3549915e-06   1.2095580e-06
  1.2007444e-06   1.1602953e-06
 -1.3367380e-05   1.1130451e-07
  5.0553604e-06   1.0368315e-06
 -1.9166118e-06   1.7777264e-06
 -6.5187492e-06   1.0851193e-07
 -8.0571326e-06   3.1913137e-07
 -6.1237952e-06   3.3799756e-07
 -7.1251179e-06   1.2461306e-06
 -1.1953989e-05   2.2530659e-07
  3.3632284e-06   7.1665323e-07
  1.4144751e-05   1.2226554e-06
  4.7941643e-07   9.6062013e-07
 -8.6093369e-06   4.5095794e-06
  7.6292854e-06   3.3732516e-07
  3.9178608e-06   1.4166311e-06
  2.2179254e-05   6.1982183e-07
 -5.5139863e-06   2.2004538e-06
  6.7494998e-06   4.3947707e-06
 -4.6391770e-06   6.7227802e-07
 -9.1026886e-06   6.9823642e-07
 -6.8099155e-07   1.8740002e-06
 -1.1710099e-05   2.0826411e-07
 -8.4361142e-07   1.2448954e-06
  2.5142774e-06   1.5735361e-06
 -6.8189470e-06   4.7309522e-06
 -4.5443189e-06   4.0902356e-07
 -3.1664684e-05   9.3453787e-07
  2.5293696e-06   2.3485651e-07
  6.2516222e-07   1.3922031e-06
  6.3001398e-06   2.5265493e-07
 -1.1645062e-06   1.1349375e-07
  8.8001536e-05   5.5532226e-08
  1.2667841e-06   1.5222649e-06
  3.4124430e-06   6.8644033e-07
 -6.3949014e-06   1.5442868e-06
 -1.6188258e-05   6.4864975e-07
 -3.7824573e-06   1.6825248e-06
 -4.8948791e-06   1.2469991e-06
 -4.6575979e-06   2.9696980e-07
  1.0461515e-06   1.8496582e-06
 -3.3301308e-06   1.2766797e-06
 -1.0324411e-05   2.6266332e-06
  1.0502797e-05   3.4360321e-06
 -2.5633274e-06   1.4672965e-07
  4.0435623e-07   8.7742262e-07
  1.0512432e-06   1.1232090e-06
 -4.3615842e-06   1.8207663e-06
 -1.1902237e-05   1.1321739e-06
  7.9078127e-06   4.8301069e-07
 -6.9017569e-06   2.2686446e-07
  3.0346860e-06   6.6648784e-07
  2.6761727e-06   2.1517437e-06
  1.7314693e-07   5.0283143e-07
  4.7106560e-06   3.1607226e-06
  4.3975547e-06   2.2136142e-06
 -1.1728854e-07   8.6946932e-07
 -4.9805330e-06   1.8417888e-06
 -1.7639853e-05   3.6287599e-06
 -6.1973328e-06   9.7813498e-08
  1.8705827e-06   4.3468290e-07
 -2.5806062e-06   8.7616661e-07
 -3.5607704e-07   3.7598838e-08
 -3.6775434e-06   2.1941675e-07
 -3.8331773e-06   1.8190689e-06
  1.5387237e-05   2.8373281e-06
  2.0290709e-05   6.1514820e-06
  1.2286344e-05   8.0161516e-07
  2.3704843e-06   1.5586923e-07
 -1.7096571e-06   1.6259262e-06
 -1.3905710e-05   1.9393121e-06
  9.0376852e-06   4.0111388e-07
  9.1976481e-06   4.5774755e-08
 -1.0746724e-05   1.0445611e-06
 -1.2629970e-06   1.9204384e-07
  2.8228220e-07   6.6443079e-07
 -1.4221485e-05   7.6826637e-07
 -2.9372811e-06   8.2309441e-07
 -3.5061805e-06   9.5681776e-07
 -1.5478527e-06   1.7494093e-06
 -2.2524907e-06   2.3078476e-06
 -6.3312532e-06   1.3827173e-07
  3.3058166e-07   4.7891223e-07
 -5.4733096e-06   3.0901651e-07
  3.3836784e-07   1.2027756e-06
 -5.0621602e-06   4.3673833e-07
  2.6535854e-06   1.2367265e-07
  4.1987732e-06   2.2061761e-06
  5.4933062e-06   1.9742780e-07
  4.4429180e-06   3.0199044e-07
  2.1392427e-06   8.4414359e-07
 -8.5218771e-06   6.5834962e-07
  3.8048317e-06   2.0058665e-06
  3.4138170e-06   2.8090174e-06
 -8.1268536e-06   2.6971011e-07
 -7.6061258e-07   2.4834131e-07
  1.1420689e-05   4.0407681e-07
 -7.5216639e-07   6.3478819e-07
 -1.2848491e-05   3.4752011e-07
 -7.5453804e-06   1.3470209e-07
  1.2122615e-06   2.5547533e-06
  1.2400586e-05   2.2974916e-06
 -3.9287894e-05   1.1767883e-06
  1.0609153e-05   3.5615258e-06
  6.9776361e-06   1.2400668e-06
 -2.2540498e-06   6.8575173e-07
  5.0459430e-06   2.5893296e-06
 -1.0900640e-06   1.7168161e-06
  2.1253420e-06   1.4390495e-06
 -1.3911323e-05   1.5871943e-06
 -1.3300070e-05   6.2384663e-07
 -1.6157625e-06   9.1098156e-07
 -1.5173487e-06   7.5605533e-07
  2.2175186e-06   2.8696130e-07
  2.2661418e-06   1.9485656e-06
 -6.7588644e-06   2.4405476e-06
 -2.7979679e-05   1.1690488e-06
 -5.8492242e-06   1.9465983e-07
 -8.0886991e-07   2.0978569e-06
  1.7147520e-05   5.5173238e-08
 -8.3517534e-06   1.2807433e-06
  3.7315624e-07   1.3183660e-06
 -2.6755311e-06   4.7364770e-07
 -2.7378787e-06   1.7898333e-06
  4.8116026e-06   6.5693632e-07
  8.6435020e-06   2.2703011e-07
  1.1797938e-05   1.1953330e-06
  2.5424799e-06   1.7582578e-06
 -6.4943206e-06   1.5382444e-06
  6.8900977e-06   4.8796733e-07
 -6.0091238e-06   2.9161622e-06
 -9.0634685e-06   1.2920325e-06
  1.1908333e-05   1.0755151e-06
 -1.0754983e-05   5.7842624e-07
 -1.9738306e-06   1.5564190e-06
 -1.4707641e-06   9.3701959e-07
  2.2591580e-06   5.6883670e-07
 -7.5739212e-07   1.8418049e-07
 -7.3973720e-06   2.0593311e-06
 -1.2458874e-05   1.3382779e-06
 -3.5984376e-06   4.7911266e-07
 -1.6987027e-05   1.5066782e-07
 -3.2902924e-06   1.3487868e-06
  3.5101034e-06   6.4194563e-07
  1.1039984e-05   1.1763752e-07
  4.4153057e-06   3.5485855e-06
 -1.2494604e-05   2.5138527e-07
  2.9085586e-05   5.5889021e-08
  1.3770797e-06   2.1608977e-07
  3.2318785e-06   8.5861927e-07
 -2.3482701e-06   9.2327639e-08
  4.9136306e-06   1.7437138e-06
 -1.5451931e-05   7.6387101e-07
  9.2152254e-07   6.2125946e-07
  4.2335669e-06   2.1379981e-06
  9.5720025e-06   1.6942820e-06
  1.8969322e-05   6.1686677e-07
  1.3228373e-07   1.7731668e-06
 -1.7781453e-05   4.4309154e-06
  2.9432958e-06   5.2276818e-07
 -5.0147437e-06   2.3906930e-06
  1.0247998e-05   1.0600869e-06
  1.1396412e-05   4.7223246e-08
 -2.5393982e-07   3.3411836e-06
 -1.8574939e-06   2.7477481e-06
 -4.3999671e-06   6.9304383e-07
 -1.0037343e-05   1.0657119e-07
  4.7345825e-06   1.0743599e-06
  9.7819157e-07   1.9080269e-06
 -6.3286343e-06   8.9753013e-07
 -1.5199773e-06   4.5187124e-07
  9.3429162e-06   2.5671071e-07
  1.1848806e-05   1.0001652e-06
 -7.3801330e-06   1.8997717e-06
 -7.5846611e-07   7.5393245e-08
  1.2453344e-05   2.3434857e-06
  2.7901510e-06   1.5237205e-06
  6.7202423e-06   1.9343524e-06
  2.2641977e-06   2.1771864e-06
 -5.2734331e-06   2.9177327e-06
 -5.7693205e-07   2.6440088e-07
 -5.0882336e-06   6.8842296e-09
  2.0539758e-06   8.6950570e-07
 -3.0896517e-06   2.9961157e-07
 -6.9155686e-07   6.1344537e-07
  9.7167213e-06   2.7750789e-06
  2.9409698e-06   2.6153083e-07
 -3.5574758e-06   1.2989256e-07
  1.7604701e-06   1.3184751e-06
  7.0117852e-07   2.1943640e-06
  6.8567488e-06   1.2748059e-08
  1.5451378e-05   2.3409298e-06
 -1.8829585e-05   5.7505243e-08
  2.0459993e-08   1.0839854e-06
  8.6712025e-06   6.0302497e-08
  2.6449827e-05   3.4678194e-06
  7.7535788e-06   1.1349266e-07
 -8.0528280e-06   1.5153861e-06
  2.4003391e-05   2.8852142e-07
 -8.9084301e-07   1.2115127e-07
  8.2165599e-07   2.6749792e-06
  8.8743636e-06   9.6824203e-07
  3.8032675e-05   1.3229938e-07
 -2.7613194e-06   1.0421685e-06
  1.2828336e-05   2.6168516e-06
 -7.1466593e-06   1.1742993e-06
 -6.8026441e-07   2.2334746e-06
  1.1406089e-05   2.6114847e-06
 -1.9716122e-06   1.1306954e-06
 -1.7758640e-06   1.4904714e-06
  2.6033583e-06   5.5982497e-07
 -5.9704064e-07   1.3120290e-06
 -6.7177092e-07   4.0417737e-07
  7.6915667e-06   9.9343254e-07
  8.4538351e-06   2.7961960e-06
 -5.1359111e-06   4.8237212e-06
  2.2367931e-06   6.9098064e-07
 -1.5467460e-05   3.1350194e-07
  1.5488433e-05   3.9130205e-07
 -1.4481139e-06   1.4781131e-06
  6.7866249e-06   8.5868561e-07
 -1.7303186e-05   2.7436258e-07
  8.6710912e-07   1.2783273e-06
 -2.1828717e-05   3.0684007e-06
  3.9494766e-06   4.4765039e-07
 -7.9155261e-06   4.9106615e-07
 -7.3606225e-06   6.0155458e-07
 -5.2766307e-05   1.9372570e-07
 -1.2744930e-05   1.8324788e-06
 -6.1118881e-05   1.4108984e-07
 -4.0602936e-06   2.7279334e-06
 -8.6545897e-06   1.8908188e-06
  1.6526553e-01   5.2174237e-06
  8.6459841e-06   2.5398292e-06
  2.6086385e-05   4.0393275e-07
 -1.4440469e-01   1.0623970e-05
  4.9050301e-02   7.3711308e-06
  5.2543604e-03   2.4719554e-06
  5.4093428e-02   2.9220086e-05
 -1.8083840e-04   2.6138954e-07
 -3.8589178e-06   1.3290226e-06
  3.2337245e-01   4.6089895e-06
  1.5531982e-06   1.5035349e-06
  1.0499865e-06   2.2460718e-07
  6.1658602e-07   1.7391900e-06
 -2.7925534e-02   1.0342315e-05
 -1.4989045e-03   1.2965391e-05
  2.2362077e-04   1.8972007e-07
 -5.9880216e-07   1.6008892e-07
 -1.7728293e-06   1.4556448e-07
 -7.3368795e-09   4.1741779e-07
  9.9994149e-06   7.9403314e-08
 -1.2608613e-03   6.4106412e-06
  9.8441778e-06   6.5469322e-07
 -1.0503086e-06   1.8414720e-07
  4.6883054e-02   1.4087711e-05
  1.2895006e-06   1.4756107e-08
 -1.3635887e-06   1.2827803e-06
  4.7702506e-06   1.5315752e-06
  7.6134152e-06   1.1895621e-06
  2.3308028e-06   6.6839107e-07
 -4.1927196e-06   1.9617836e-07
  1.5774040e-06   1.3733853e-06
 -2.1044539e-06   7.1890844e-07
  1.0888448e-05   9.1435982e-07
  2.9360829e-06   2.0545144e-06
 -4.2484402e-07   7.0757562e-07
 -4.1671183e-06   7.0941098e-07
  9.5247415e-06   4.5377323e-07
 -4.6483224e-06   5.1111635e-07
  4.1518824e-06   3.8028506e-07
 -1.7515413e-05   6.3444992e-07
 -6.1209880e-06   9.4101472e-07
 -6.8114591e-06   7.3130849e-07
  4.0085399e-07   1.1421323e-06
 -3.6134298e-07   1.1372135e-06
 -5.1290335e-06   3.7457746e-06
  1.1970900e-06   1.0917007e-06
  2.8202419e-06   1.1828558e-06
  9.6540925e-06   3.1755228e-08
  9.4417865e-06   1.8198211e-06
  4.3133450e-06   1.1672852e-06
 -3.6381996e-06   2.4582707e-06
  1.8022092e-05   4.8914103e-08
 -4.2243050e-06   1.0362157e-06
 -4.3145424e-06   1.7440020e-06
 -5.8584856e-06   9.9153999e-07
 -3.5352205e-06   2.3525581e-06
  9.8618584e-06   1.2431535e-07
 -1.2221648e-07   1.2209127e-06
  5.2826549e-06   2.5916478e-07
  7.9497968e-06   1.2061651e-06
 -6.0425279e-08   2.9737512e-06
 -4.3595213e-07   1.6908207e-07
  2.5739582e-06   6.2322181e-07
  9.0965195e-06   5.1690722e-07
 -9.9938070e-06   2.2407562e-06
  4.7696041e-05   1.4592112e-07
  5.9703057e-06   7.6363517e-07
  8.0592408e-06   1.0257900e-06
  4.1059466e-06   4.0935624e-06
  7.9530992e-06   3.9389784e-07
 -1.0977587e-05   2.1369617e-06
  1.2961406e-06   6.1005011e-07
  1.1095365e-05   4.9919055e-07
 -8.4638323e-06   1.6584553e-06
  2.9284083e-06   7.1981781e-08
  3.2932264e-06   2.8272184e-06
  5.6445624e-06   5.1727329e-07
 -2.6048124e-06   1.7268200e-06
  3.1195068e-06   1.3825263e-06
 -1.4528126e-06   2.0999444e-06
 -1.4098034e-05   1.5828770e-07
  6.4904889e-06   1.7259409e-06
 -1.2532973e-05   1.9079214e-06
 -5.4226093e-06   4.8994792e-07
  1.8238639e-05   4.3967006e-07
 -7.4671561e-07   2.5476220e-08
 -5.3705248e-06   1.0609391e-07
  9.7730208e-06   2.0001053e-06
 -1.1824397e-05   1.2681016e-06
  1.2043205e-05   2.2299253e-07
 -6.3915551e-02   6.0368558e-07
 -8.9280076e-02   3.3603328e-06
 -1.3872530e-01   5.8343460e-07
 -5.7822245e-01   2.9448956e-06
  7.7603906e-01   2.7143362e-06
 -2.0072508e-01   8.5344607e-07
 -4.5290092e-01   1.3172586e-05
  3.0996832e-01   3.1448675e-05
  1.1952934e-01   1.0488552e-05
 -2.9665697e-01   4.3593360e-07
 -1.7287800e-01   2.2578367e-06
  2.9786557e-01   1.3899361e-06
  3.6983161e-05   2.4293233e-06
  4.1873243e-01   2.3869165e-06
  3.3239296e-01   6.2449925e-07
 -2.7421275e-01   6.0735388e-06
 -1.8318879e-05   5.6827736e-07
  5.7146090e-06   1.1242060e-07
 -1.9497720e-05   3.5972744e-06
 -4.8660320e-01   5.8261257e-06
  3.4794134e-01   9.9794861e-06
  8.6610563e-02   1.3756123e-05
  6.2781568e-05   3.7806067e-06
 -2.9727870e-01   1.5983273e-05
  1.4035034e-05   3.7932018e-06
 -2.1876685e-06   2.5773539e-07
  4.0565599e-05   1.6776890e-07
 -3.2057437e-06   5.6270301e-07
 -1.4885926e-05   2.8231108e-07
 -3.4639475e-06   9.6018232e-07
  2.1035026e-01   7.5605163e-07
 -2.3650444e-01   3.4945649e-07
 -2.0610155e-01   3.1871964e-06
  2.1263358e-01   5.2225612e-08
 -1.1308409e-02   7.5318769e-07
  7.7594924e-03   9.6360324e-08
 -2.1424595e-01   5.9285330e-06
  1.0267183e+00   1.4201519e-06
  1.9769445e-01   7.1898262e-06
  9.7993456e-02   7.8401364e-08
 -3.4430448e-02   3.2245612e-08
  2.6570514e-01   5.2607857e-06
  5.0712575e-04   4.7916760e-06
  2.4971598e-01   2.5125116e-06
 -2.7430639e-01   8.8505828e-07
 -4.5573205e-01   7.4302903e-08
 -7.1700908e-02   6.1306264e-06
 -3.1268002e-05   1.2875613e-06
  2.3167694e-01   6.8022615e-07
 -1.2117238e+00   7.2064390e-06
  9.8337513e-01   7.5144094e-06
  3.4846237e-01   1.2844424e-07
  2.2420195e-01   3.2541546e-05
 -7.1925074e-01   4.1931521e-06
  8.1756182e-02   3.8244420e-07
  9.5761744e-03   5.4112203e-08
  3.6052402e-02   6.0275795e-07
  4.1302286e-02   7.7312878e-05
 -1.3060975e-01   7.1433465e-06
 -2.3197507e-02   1.1144260e-05
 -1.2333217e-06   1.2719654e-06
  1.2858654e-05   7.4348259e-07
  1.4703789e-07   1.0314139e-06
 -3.0336885e-06   1.9738200e-06
 -2.6413186e-06   4.7391063e-06
  1.8608449e-06   7.3532237e-07
  3.1504202e-05   7.1003603e-07
 -8.7160799e-07   1.5442935e-06
 -1.5260397e-06   7.5411606e-07
  6.4894107e-06   2.5076588e-06
  1.2285431e-06   1.0618733e-06
  2.4726822e-05   2.1657654e-07
 -6.8216127e-06   1.5323385e-06
  7.4968393e-06   2.8481753e-07
 -3.7381967e-06   2.6666251e-07
 -2.6924359e-05   1.0366289e-06
 -7.2656876e-06   9.4032998e-07
 -5.4313932e-07   2.3247202e-07
  3.1422289e-06   7.1676013e-08
 -4.6111950e-06   1.0519207e-06
  4.5443808e-06   5.6500578e-08
 -5.1335219e-06   2.4110113e-06
  6.0106754e-06   2.2083300e-07
  6.3594198e-06   1.0776401e-06
  6.1714554e-06   1.2432863e-06
  1.7197053e-05   5.9103428e-07
 -1.1971116e-05   2.6735156e-06
  1.3989342e-05   9.0018199e-07
  6.7979518e-06   4.0434284e-07
 -4.0922140e-07   2.2945499e-06
  4.4833507e-07   1.7578539e-06
  2.2623294e-06   4.6036777e-07
  5.6059016e-06   3.0562856e-07
  1.8039524e-05   5.1014018e-07
 -1.3325140e-01   1.6319761e-06
  4.0289651e-05   2.5958005e-07
 -4.3896730e-06   6.9285358e-07
  7.8011335e-06   5.8527139e-08
  7.4271015e-06   1.3961500e-07
 -3.7150219e-02   6.1663068e-06
  1.4435499e-05   5.3769497e-08
  2.2925492e-06   3.7933998e-07
  1.8205939e-05   3.7117088e-06
 -8.5746842e-06   1.8723497e-06
  9.5105734e-06   9.0389545e-07
  3.5251271e-06   2.2619335e-07
  2.4502076e-06   3.9115440e-07
 -1.3916664e-05   1.3155802e-06
  6.3083553e-06   1.5112740e-06
 -3.8130354e-06   4.3613902e-08
  1.1338796e-06   5.3986008e-07
  1.0071212e-05   1.4410973e-06
 -4.6038049e-06   3.3598208e-06
  3.5455801e-06   2.3099826e-06
 -5.3583044e-06   2.0455357e-07
  1.0739059e-06   1.5495336e-06
  9.8608427e-07   1.5708641e-06
  3.3096933e-06   2.3994439e-06
 -2.5681368e-06   6.2364222e-07
 -3.6376216e-06   7.7993383e-07
 -5.0493982e-06   1.7023093e-07
  1.7882046e-05   1.6040262e-06
 -1.1022413e-06   3.8239372e-07
 -8.0446443e-06   6.9645927e-07
  9.4728030e-06   1.0153236e-07
 -3.9473872e-07   1.1077913e-06
 -5.9654226e-06   3.5198237e-08
 -8.5267020e-06   1.8295037e-06
 -2.2090335e-06   1.0145101e-07
 -7.6404018e-07   5.1646921e-08
 -8.7380731e-06   2.9581824e-07
 -2.0749635e-06   2.7837398e-06
  3.6424631e-06   4.3402019e-06
 -1.7305330e-05   6.5484693e-07
 -1.3574568e-05   2.9672085e-06
  6.3107422e-05   2.6091857e-07
  1.7686458e-06   9.3777322e-07
 -5.4946595e-06   7.3646942e-07
  6.4889987e-06   4.1987298e-07
 -8.2567453e-07   8.3369946e-07
 -8.1313119e-06   1.5019818e-07
  1.1375798e-06   1.6372105e-06
  1.2443422e-07   1.8995817e-06
 -1.0573181e-06   3.3050103e-06
  3.1753297e-07   2.1762186e-07
 -1.0255778e-05   3.8948198e-08
 -2.2789527e-06   8.6224964e-07
 -4.3312116e-07   2.9746377e-07
  6.3219086e-05   8.8558733e-07
  3.9719116e-06   9.6307963e-07
 -2.6762375e-06   1.2662837e-06
 -1.6055118e-06   1.4264650e-06
 -2.9600603e-06   2.1474730e-06
 -8.6555083e-06   1.0464468e-06
  1.2126046e-05   1.0109878e-08
  5.3192771e-06   5.8700437e-07
  3.8074388e-06   8.7278934e-08
 -1.5696526e-07   2.4837109e-07
 -1.3654126e-05   3.0207743e-06
 -9.5226295e-07   6.6384888e-07
  1.5156487e-05   3.1576809e-07
  1.4547554e-05   1.3401577e-06
  1.3788192e-05   3.5613762e-06
  2.2129404e-06   3.0666515e-06
  1.1245575e-06   3.1721659e-06
  2.0757116e-06   5.1635908e-07
  3.4335192e-06   9.7318036e-07
  3.4673571e-06   2.2178617e-06
 -1.4026698e-05   1.9124248e-06
  1.3666398e-05   1.4361176e-06
 -7.0203914e-06   6.3821636e-07
 -7.4191848e-07   1.4940069e-06
  2.2476786e-06   8.3654747e-08
 -5.2635041e-06   2.2777001e-06
  9.9366944e-06   1.0572343e-06
  9.4781990e-06   2.8494453e-06
 -6.5436211e-06   1.2319830e-07
 -9.6493595e-06   9.5055191e-07
  6.8055238e-06   7.0272023e-08
 -1.0074693e-05   4.0505913e-07
 -1.0183058e-07   1.5177638e-06
 -7.0153847e-06   1.9205440e-07
  8.4094791e-06   1.5730144e-06
 -1.0096738e-05   3.2286844e-06
 -6.1953374e-06   3.7657273e-07
  4.2288839e-06   2.0335356e-06
  7.9922720e-06   9.9072906e-07
 -6.9435788e-07   3.9263455e-07
  1.2812412e-05   2.9866536e-07
  3.7418453e-05   1.0405673e-06
 -6.6153898e-06   6.8060075e-07
 -3.9610068e-06   1.5882794e-06
  1.7893269e-06   5.4685114e-07
 -8.7058797e-06   4.2720390e-06
  2.3288891e-05   4.3246988e-07
  8.6689179e-06   1.4416642e-07
 -1.8658645e-06   4.7167711e-07
  2.1686981e-05   2.2785600e-06
 -1.5771013e-05   1.5859739e-06
  5.1653578e-06   7.5844264e-07
 -1.8148785e-06   3.3701292e-06
  8.3341101e-06   1.1586136e-06
 -5.6704844e-06   3.4876308e-07
 -1.3873461e-05   2.6574986e-07
  3.7392058e-06   1.1111465e-06
 -4.0435161e-06   2.1129290e-06
  4.7864717e-07   9.9357713e-08
  1.0201175e-07   2.5881295e-06
 -1.8138791e-06   6.3974431e-07
  8.8701279e-07   4.9481918e-07
 -6.8317254e-06   1.9780973e-06
  1.3570746e-06   2.4016190e-06
 -8.1854905e-06   8.1490271e-07
 -7.5015478e-06   1.8965221e-07
 -6.3631733e-06   3.2851341e-07
 -3.4631769e-06   5.1863384e-07
 -8.5749325e-06   1.9415618e-06
  4.3875884e-06   7.2137459e-07
 -4.7372378e-06   1.3059649e-06
  1.0012707e-05   3.2940585e-07
  2.2576478e-05   1.2773845e-06
  4.4086623e-06   2.2072759e-06
 -9.8447754e-06   2.2933126e-07
  2.0568987e-06   1.9360030e-07
  2.4690682e-06   1.5548393e-06
  4.6502046e-06   2.0669197e-06
 -2.5204929e-06   4.5916551e-07
  8.2154029e-06   7.8694109e-07
 -2.6119272e-07   3.6677141e-06
 -3.1930049e-06   4.3628151e-07
  7.3409615e-06   3.1977172e-06
  1.4224341e-05   1.6615028e-06
  1.3260899e-05   1.7944983e-07
  1.4181342e-06   5.1744951e-07
 -1.4437936e-06   8.3734488e-07
  3.2766188e-06   1.2092940e-07
 -1.4829477e-06   3.7824574e-07
 -4.1618150e-06   1.6523721e-06
 -2.7595804e-06   3.4906270e-07
 -1.3928713e-05   9.6686517e-07
 -1.5739563e-05   1.7324354e-07
  4.4869088e-05   3.3000165e-07
  1.0480311e-05   6.7762466e-07
  1.2636983e-05   1.8986300e-07
  6.1052560e-06   1.9424195e-07
 -7.0583028e-06   1.0754657e-06
  9.6083995e-06   3.5403329e-07
  5.8473796e-07   1.1401908e-06
  6.5062432e-07   1.1549025e-06
 -1.0458565e-06   8.0323133e-07
 -9.3585477e-06   5.4767975e-06
  1.4328177e-05   7.9796001e-07
 -4.5731326e-07   8.3545376e-07
 -1.7509599e-05   5.4731140e-07
 -3.9685347e-06   1.6217487e-06
 -7.1761556e-06   1.0940638e-06
  6.0091238e-06   1.2289931e-07
 -8.0121081e-06   2.1347544e-06
 -5.8540365e-07   1.0917701e-07
  7.6662127e-06   2.4226500e-07
  2.1591450e-06   2.1458928e-07
  2.2071397e-06   8.3573508e-07
  4.1163125e-06   2.4877495e-06
 -7.2040626e-07   7.8823427e-07
  6.8189579e-06   1.2183687e-06
  1.8990171e-05   1.6884304e-06
 -6.1564106e-06   3.9367981e-07
  7.5241842e-06   8.1539702e-07
 -8.8146606e-08   2.1054365e-07
 -2.1378455e-06   1.1602731e-06
 -2.3484551e-03   6.3615670e-07
 -2.1797325e-05   1.0116051e-07
 -3.7339207e-06   2.5381883e-06
 -4.7648941e-06   4.2544136e-07
  3.3244889e-06   3.9473181e-07
  3.1050424e-06   9.5525579e-08
 -1.7674928e-06   1.2367794e-06
  1.6331334e-05   1.0435139e-07
 -3.5271507e-05   1.3731108e-07
 -6.7103736e-02   7.4727092e-07
  9.0491147e-07   1.0590353e-07
 -7.9246620e-06   2.0290115e-06
 -8.8936758e-06   4.0995251e-06
  3.2702076e-08   1.6060826e-06
  1.1081373e-06   1.6118995e-06
 -1.5558146e-05   5.1160538e-07
  1.1353511e-05   7.5283886e-08
  1.5549247e-05   4.3355875e-08
 -1.3057896e-05   3.4006309e-08
  9.4639981e-06   4.2655543e-06
  2.3283419e-06   9.6527594e-07
 -4.4544525e-02   3.2915150e-06
 -1.5305048e-01   3.4720441e-07
 -1.0415149e-06   3.5377599e-07
 -1.3916568e-06   2.0266154e-07
  1.7048196e-06   1.0785118e-06
 -4.4792314e-06   7.0606620e-07
  8.1875542e-06   1.3408390e-06
  1.3255230e-05   2.3521966e-06
 -5.4010629e-06   4.4972691e-07
 -8.1662333e-01   2.8608736e-06
  5.6814056e-06   2.1052634e-07
  3.0944619e-05   4.9749897e-08
  1.0260120e-05   1.0737499e-06
 -5.9021854e-06   9.7656721e-07
  6.4993719e-06   1.5150420e-06
 -1.4416436e-05   6.7380381e-07