64
Config_type=aimd86 Weight=1.0 Lattice="10.937268660 0.000000000 0.000000000 0.000000000 10.937268660 0.000000000 0.000000000 0.000000000 10.937268660" Energy=-335.9928214700 Virial="4.79724 3.04735 1.25289 3.04735 4.39476 3.07664 1.25289 3.07664 2.67918" pbc="T T T" Properties=species:S:1:pos:R:3:forces:R:3
Si	      0.04767      0.10567     10.92518        -1.389067     -0.612254      0.431821
Si	      5.64881      0.13629     10.60859         0.938463     -0.825181      1.133736
Si	      0.01387      5.50475     10.83262        -0.673417     -0.867725     -0.863590
Si	      5.36935      5.37412      0.10392        -0.473723      1.110191     -0.552421
Si	     10.89721      0.18232      5.89509         0.859420     -0.294523     -2.499523
Si	      5.69082     10.74841      5.48881        -2.102032      1.167158     -0.358119
Si	     10.82091      5.62848      5.54194         1.558992      0.135511     -0.708895
Si	      5.51081      5.66895      5.03747         2.128979     -3.011654      2.169090
Si	      0.02004      2.70243      2.68865         0.523589      0.272571      1.457152
Si	      5.42861      2.69444      2.74248        -1.992287     -0.005443      1.235364
Si	     10.68381      8.19690      2.93621         0.808773      0.107263     -1.033875
Si	      5.36699      8.40987      2.59896        -1.309102     -0.574240     -0.569425
Si	      0.09070      2.72891      8.42340         0.019943      1.846135     -0.652881
Si	      5.77456      2.68871      7.93830        -0.975607      0.435930      1.162834
Si	     10.92787      8.11448      8.22129         0.811858      0.792551      0.155810
Si	      5.25711      8.20827      8.00993         1.521045     -0.797826      1.616631
Si	      2.73559      2.43602      0.15891         1.299844      0.428707     -0.911335
Si	      8.20128      2.95805     10.87490         0.184926     -1.019028     -0.078867
Si	      2.68382      8.48212     10.78050         0.018036     -0.051561      2.023146
Si	      8.34140      7.94350      0.44883        -0.262928      1.025688     -2.013255
Si	      2.98862      2.76699      5.70245        -1.405723      1.162773     -1.532608
Si	      8.44365      2.44492      5.31899        -0.866120      2.853608      1.523852
Si	      2.83859      8.12060      5.58204        -1.404377     -0.719077     -0.563373
Si	      8.21634      8.10414      5.42616         0.047056      0.444231     -0.808928
Si	      2.50009     10.92437      2.87769         1.695272     -1.992244      1.338373
Si	      8.00594     10.86992      2.78212         0.201586      1.410709     -1.016558
Si	      2.51193      5.54299      2.55965        -0.171554      0.203208      0.922285
Si	      7.93478      5.26634      2.52922         1.855355     -0.808800      1.253160
Si	      2.75691      0.04545      8.05124        -0.810576     -0.501674      0.639193
Si	      8.36942     10.87298      8.26455        -1.729897     -2.209829     -0.488455
Si	      3.00194      5.24556      8.34610        -0.023612      0.511624     -0.539609
Si	      8.15967      5.71562      8.22663        -1.054996     -1.652691     -1.514062
Si	      3.90040      1.28383      4.23316         2.255673     -0.224502     -0.564256
Si	      9.65355      1.22511      3.95070         0.720017     -1.155416      0.091739
Si	      4.10404      6.90400      4.02409        -2.413199      1.349440     -2.502096
Si	      9.33080      6.58034      3.94083         0.278496      0.684766      0.899070
Si	      4.15117      1.25684      9.35824         0.338060      1.856896      0.063071
Si	      9.54022      1.33291      9.46264         0.599480      1.546033      2.333365
Si	      3.95670      6.95380      9.67415         1.495997     -0.946313     -0.685388
Si	      9.35672      7.00494      9.52915         1.990205     -0.377130      1.510846
Si	      1.36106      1.22902      1.54099        -1.325074      1.332977     -1.587021
Si	      6.68195      1.58776      1.28774         1.744120     -1.492196     -0.915553
Si	      1.05153      7.06920      1.10780         1.742012      0.879198      1.959627
Si	      6.73082      6.82342      1.51474        -1.742555     -0.277211     -0.798431
Si	      1.52967      1.64563      7.00448        -1.140517     -0.826366     -0.211940
Si	      7.07805      1.19359      6.72203         0.120644     -0.035912      0.456139
Si	      1.57058      6.66788      7.08453        -0.902341      0.392849     -0.961773
Si	      6.77804      6.80425      6.64942        -0.662146      0.658664      0.855742
Si	      1.26927      4.11937      4.30100         0.827828     -0.088554     -0.822658
Si	      6.90043      3.88065      4.04986        -0.232209      0.290077      0.676540
Si	      1.21980      9.45375      4.37666         0.040575      0.473738     -0.018922
Si	      6.75208      9.40663      4.02055         1.383364     -0.027453      0.958175
Si	      1.66004      3.99210      9.75312        -1.764889     -0.025864      0.041403
Si	      6.79137      4.29665      9.47492         0.200145     -0.883052      0.254102
Si	      1.31722      9.73823      9.50517        -0.332245     -0.404709     -1.154956
Si	      7.03801      9.23605      9.72891        -0.896925      1.155977     -1.000474
Si	      3.95403      3.98972      1.44951         0.342126      0.403667     -0.032998
Si	      9.69424      4.08328      1.40852        -0.855943      0.939698     -1.444643
Si	      4.17022     10.11847      1.21188        -1.028935     -2.107375      0.550795
Si	      9.46217      9.63105      1.46445         1.171960      0.508273      0.067224
Si	      4.45395      4.20232      6.69219         0.010724      0.575297      0.345816
Si	      9.68657      4.33234      6.94180        -1.002460     -2.342363      0.809034
Si	      4.01944      9.64231      6.70702         1.218404      0.413933      0.334634
Si	      9.58938      9.47456      6.83678        -0.008510     -0.211172      0.137117
64
Config_type=aimd57 Weight=1.0 Lattice="10.937268660 0.000000000 0.000000000 0.000000000 10.937268660 0.000000000 0.000000000 0.000000000 10.937268660" Energy=-338.1941655400 Virial="1.48561 6.81280 0.23802 6.81280 2.22714 5.42983 0.23802 5.42983 2.79334" pbc="T T T" Properties=species:S:1:pos:R:3:forces:R:3
Si	     10.66393     10.86446      0.00696         1.004016      1.057832     -0.853952
Si	      5.27725      0.20594     10.81678         0.465098     -0.011537     -0.149923
Si	     10.83373      5.50681     10.74485         0.693269      0.185534     -0.410396
Si	      5.35020      5.43143      0.02057        -0.057369      0.671021      1.765428
Si	     10.75620      0.05021      5.18826         2.240128     -0.628788      1.122328
Si	      5.54668     10.73152      5.78544         0.937194      1.462976     -1.776960
Si	     10.87395      5.32691      5.74103         0.511464      0.434155     -2.678267
Si	      5.32002      5.44915      5.32116         1.470901     -0.404095      0.648278
Si	      0.22055      2.73467      2.63260        -1.879736      0.118254     -0.171306
Si	      5.50275      2.70065      2.86403         1.066152     -2.015585      0.614133
Si	      0.32445      8.00077      2.74763        -0.740852      0.920787     -1.340326
Si	      5.59308      8.44516      2.66115        -0.431826     -2.901717     -0.595835
Si	      0.02625      2.57569      8.33912        -1.084108     -0.278599     -0.686952
Si	      5.25995      2.69738      8.22073         1.061654      0.718745     -0.283656
Si	      0.04524      8.13257      8.16667        -0.916432     -0.066998     -1.357558
Si	      5.60288      8.07727      8.24022         0.138878      0.751496      0.585237
Si	      2.77603      2.92411      0.05699        -1.495662     -0.897934      0.010360
Si	      8.27871      2.90221     10.81999        -0.254383     -1.240768      0.632393
Si	      2.80016      8.47753     10.74273        -0.399889     -0.894248      1.015223
Si	      8.17178      8.07798      0.15099         0.564089      1.692914      0.125086
Si	      2.82588      2.78248      5.43196        -1.963923     -0.641836     -1.029949
Si	      8.32049      2.76441      5.61998        -0.377681      0.271545      0.214309
Si	      2.93847      8.28818      5.66897        -1.150964     -1.427670     -0.689822
Si	      8.45255      8.12143      5.32359        -2.393245     -0.481271     -0.692857
Si	      2.63400      0.13931      2.84532         0.902365     -0.723567     -0.116458
Si	      8.04516      0.12442      2.67999         0.581441      0.114788     -0.665328
Si	      2.87876      5.62614      2.78669        -0.874316     -1.169369     -1.553467
Si	      8.43479      5.38845      2.73727        -1.269904     -0.304903      1.134543
Si	      2.59891      0.03719      8.08167        -0.708612      0.117608      0.324900
Si	      8.26213     10.65333      8.08575        -1.815377      1.416244      1.038334
Si	      2.84755      5.17685      8.14722        -1.370838      2.709345      1.423564
Si	      7.81074      5.65627      8.51224         0.751354     -1.551452     -1.589312
Si	      4.24035      1.23317      4.41244        -0.566008      0.163595     -1.368354
Si	      9.52408      1.44599      3.96051        -0.497968      1.278617     -0.424745
Si	      4.23460      6.93900      4.06417        -0.548635      2.092435     -0.141241
Si	      9.82340      6.77175      3.98682        -0.436268     -0.834557      1.584261
Si	      3.77969      1.49260      9.48519         0.457976     -0.675143      0.319016
Si	      9.36277      1.28075      9.43782         0.622146     -0.115735      0.776152
Si	      4.08284      6.85828      9.51040        -0.390252     -0.688354      0.131170
Si	      9.42254      6.95688      9.46752         0.451712      0.181516      0.777296
Si	      1.29589      1.31888      1.19999         0.935152     -0.059083     -0.003347
Si	      6.77198      1.48940      1.14003         0.444761      0.256100      1.019433
Si	      1.45641      6.73381      1.11827         0.988528      0.958896      0.091877
Si	      6.97731      6.63405      1.48350        -1.639403      0.961350     -0.530556
Si	      1.25641      1.49299      6.75922         0.458676     -1.072601     -1.494634
Si	      6.79886      1.42657      6.97707         0.908310     -1.017794     -0.323385
Si	      1.38471      6.61556      6.91663         1.424381      1.403230     -0.009165
Si	      6.74540      6.72779      6.69341         1.082134      0.770694     -0.185420
Si	      1.36307      4.21798      3.94522         0.773377     -0.052692      2.010291
Si	      6.84544      4.05579      4.17828         1.270593      0.392377     -0.085364
Si	      1.46676      9.40051      4.14064         0.213604      1.507733      0.525487
Si	      6.81798      9.63310      4.03192         1.476932      0.194244      2.316121
Si	      1.30029      4.02706      9.42099         0.881337      0.892102      2.031564
Si	      6.60859      4.01679      9.77158         0.136180      0.217374     -1.789634
Si	      1.12971      9.64725      9.44292         1.244458      0.408559      0.848649
Si	      6.79717      9.63706      9.80585         0.472842     -1.103611     -1.230394
Si	      4.23876      3.91056      1.54764        -1.528992      2.649341     -0.631648
Si	      9.68568      4.16991      1.28983         0.498494     -1.190205     -0.022250
Si	      4.21820      9.80338      1.43858        -1.808116     -0.126133     -0.619304
Si	      9.62141      9.60043      1.53888        -0.861998     -1.738326      0.712362
Si	      4.04680      4.10490      6.70251         1.883282     -0.651495      0.104863
Si	      9.62536      4.19752      7.24356        -1.941970     -0.696544     -0.136944
Si	      4.20737      9.56490      7.10661        -0.847183     -0.615530      0.542239
Si	      9.58952      9.57983      6.58603         1.239031     -0.693269      1.193809
64
Config_type=aimd92 Weight=1.0 Lattice="10.937268660 0.000000000 0.000000000 0.000000000 10.937268660 0.000000000 0.000000000 0.000000000 10.937268660" Energy=-337.0520157200 Virial="-0.58187 0.33001 5.74986 0.33001 0.86825 -0.45881 5.74986 -0.45881 0.55119" pbc="T T T" Properties=species:S:1:pos:R:3:forces:R:3
Si	      0.07439      0.13793      0.22032        -0.866365     -0.732282     -1.130828
Si	      5.39202      0.02961     10.84344        -0.745872     -1.942974     -1.216114
Si	      0.11479      5.55650      0.10893        -0.770762     -0.459155     -0.607317
Si	      5.37512      5.56495     10.85417         1.137026     -0.337657      0.414981
Si	     10.58934     10.78199      5.33769         0.378391      1.300434      0.888107
Si	      5.33920     10.91082      5.38502        -0.551657      0.040105     -1.119320
Si	     10.89539      5.37595      5.48560        -0.921278      0.621994      0.704391
Si	      5.20330      5.57406      5.25155         1.875194     -2.392806      1.598233
Si	     10.85368      2.86248      2.75351         1.260059     -1.044440      1.637157
Si	      5.45638      2.65115      2.73964        -0.247061     -0.118601     -0.426967
Si	     10.80926      8.34036      2.73246        -0.953738     -3.320294     -2.030357
Si	      5.56768      8.16416      2.66092         0.475522      0.199475      1.106130
Si	      0.47941      2.65933      8.60321        -2.471785     -1.587704     -2.084448
Si	      5.61020      3.01491      8.06867        -0.360902     -1.987454      0.365897
Si	     10.92138      8.39746      8.42459         0.889297     -0.566895     -0.556618
Si	      5.84773      8.00855      7.97475         0.227177      0.804744     -0.518737
Si	      3.03034      3.06405      0.09333        -1.198391     -2.589528     -1.661873
Si	      8.18955      2.52287      0.11665         0.619021      0.857667     -0.643940
Si	      2.82851      8.04217     10.88217         1.166904      0.520408      0.340510
Si	      8.17131      8.31595     10.90259         0.128804     -0.887202     -0.339437
Si	      2.68031      2.46226      5.62535         0.580526     -0.436331      1.768613
Si	      8.06709      3.02794      5.76585         0.931724     -1.352075     -0.537413
Si	      2.65206      8.47215      5.43260        -0.107215     -1.684714      0.200031
Si	      8.24239      8.03232      5.21688        -0.012435      1.310176      1.385156
Si	      2.50492     10.81197      2.59770         0.943968      0.497703      0.107454
Si	      8.21820      0.02154      2.69712        -1.368140      1.191389      0.612461
Si	      2.57979      5.41673      2.95136         0.891298      0.335992     -0.234916
Si	      8.03708      5.44301      2.89734         0.541077     -0.230557     -2.140389
Si	      2.87662     10.79834      8.25291         0.059395      0.840756      0.417907
Si	      8.16179     10.92417      7.86837        -0.006470      0.838894      1.342796
Si	      2.72946      5.55760      8.02533         0.218833      0.475928      0.305520
Si	      8.15515      5.24635      8.22477         0.883352      1.530956      0.767510
Si	      3.79026      1.45869      3.97329         1.400775     -2.020388     -0.576243
Si	      9.27116      1.55938      4.15588         0.933339      0.148385     -0.086134
Si	      4.10428      6.98921      4.07344        -2.400158      1.459500     -1.223129
Si	      9.55371      6.75529      3.95578         1.418986     -0.593450      0.127237
Si	      4.30931      1.45980      9.42529        -1.456969      1.194562      0.040232
Si	      9.62155      1.25697      9.46046         0.018995      0.254437      0.739100
Si	      4.36446      6.93907      9.33467        -2.087606     -0.722801      0.063764
Si	      9.66570      6.83985      9.62263        -1.291245      0.085345     -0.096318
Si	      1.47266      1.59756      1.32383        -0.173529      0.548707      0.483781
Si	      6.62616      1.16697      1.25814         2.057871      1.433300      2.124216
Si	      1.37074      6.96609      1.42603         0.202886     -0.708790      0.800274
Si	      6.83826      6.79194      1.32207         0.399324      0.247965     -0.395681
Si	      1.28611      1.04629      6.93153        -0.020263      0.262645     -0.155357
Si	      6.64524      1.31617      6.65691         1.004979      1.592863      0.859586
Si	      1.14775      6.90577      6.77020         1.210049      1.161949      0.554348
Si	      7.11033      6.44543      6.39428        -1.483316      0.212226      1.771575
Si	      1.43530      3.90873      4.59461        -1.497475      1.422974     -3.530285
Si	      6.71690      4.04533      4.12542        -0.477077      0.277945      0.665822
Si	      1.05802      9.50690      3.99709         2.850517      2.466988      2.087702
Si	      6.92356      9.61099      4.07144        -0.991879     -0.442612     -0.084078
Si	      1.56853      4.26029      9.63214         0.903928      1.300655      1.207283
Si	      6.82651      4.04197      9.74852         0.363314      0.125203     -0.103327
Si	      1.58744      9.70054      9.88207        -1.241662     -0.296598     -0.910251
Si	      6.87132      9.70675      9.41581        -0.012492     -0.801001      0.292308
Si	      4.24967      4.25678      1.45405        -0.201442      0.848802      1.831062
Si	      9.58779      4.20264      1.43927        -1.112255     -0.058818     -0.497041
Si	      4.23891      9.44423      1.37474        -1.836422      0.961385     -0.929123
Si	      9.43810      9.58258      1.44809         1.130957      0.566561     -1.397891
Si	      4.04282      4.06710      6.73527        -0.234659      0.576746     -0.132262
Si	      9.86253      4.07562      7.25373        -0.213749     -0.736580     -1.153033
Si	      4.24401      9.48141      6.89584        -0.152557     -0.271351     -0.363323
Si	      9.44697      9.35385      6.84531         0.363337     -0.192707     -0.728989
64
Config_type=aimd88 Weight=1.0 Lattice="10.937268660 0.000000000 0.000000000 0.000000000 10.937268660 0.000000000 0.000000000 0.000000000 10.937268660" Energy=-337.7505330400 Virial="-0.48207 -2.93523 -2.56027 -2.93523 1.72791 2.32084 -2.56027 2.32084 -1.94272" pbc="T T T" Properties=species:S:1:pos:R:3:forces:R:3
Si	      0.22682      0.01353     10.92828        -0.383404     -0.683848     -0.299335
Si	      5.43151     10.77057      0.05847         0.365307      1.077471     -0.238576
Si	     10.65291      5.53463     10.72749         1.590831     -1.061897      1.375618
Si	      5.52941      5.49328     10.87337        -0.455939     -1.088578      1.159184
Si	      0.08401     10.72298      5.40044        -0.755873      1.020067      0.400021
Si	      5.70758      0.09225      5.38471        -0.927784     -1.180118      0.848274
Si	      0.28422      5.57383      5.12490        -0.502815     -0.019099      1.209575
Si	      5.58433      5.48906      5.76716         0.033948     -0.231857     -2.910247
Si	     10.84394      2.70875      2.87752        -0.728454      1.465972     -1.175254
Si	      5.68132      2.61410      2.56596        -1.147782      1.223299      0.868022
Si	      0.25105      7.96259      2.74801        -0.068045      2.722034      0.723563
Si	      5.21582      8.26042      2.84890         0.792043     -0.210498      0.166330
Si	     10.56687      2.74827      7.93270         2.322353     -0.895118      0.343259
Si	      5.40228      2.62327      8.35171        -0.901289      0.159840      0.166453
Si	     10.80605      8.15109      8.18869        -0.677568      0.018686     -0.483707
Si	      5.21220      8.09576      8.52491         0.893623      0.616429     -1.477279
Si	      2.50541      2.82532      0.06268        -0.541160      2.123922     -1.045630
Si	      8.10314      2.54055     10.78377         0.606058     -0.454492      1.531825
Si	      2.65363      8.13384      0.21040        -0.586580     -1.339293     -0.436026
Si	      8.15430      8.58580      0.12174         0.026688     -0.819689      0.027000
Si	      2.90952      2.80588      5.54618        -0.274937     -1.058168     -0.569077
Si	      8.31426      2.85848      5.22558        -0.661837      0.618590      1.075628
Si	      2.76515      8.34312      5.47869         1.157891      0.560039      0.019932
Si	      8.36313      8.06709      5.72723        -1.159977      0.011553     -1.041899
Si	      2.83314      0.16895      2.56991        -1.143233      0.853453      1.564228
Si	      8.34220     10.71560      2.87557         0.221161      0.073023      0.043287
Si	      2.88956      5.46085      2.88654        -0.975090     -1.216754     -1.578574
Si	      8.24310      5.72785      2.64610        -0.407313     -0.160635     -1.422011
Si	      2.74137     10.91116      8.34110        -0.334109      0.719794     -0.266725
Si	      7.93831      0.17669      8.01038         1.063780      0.317899      1.252048
Si	      2.71935      5.46318      8.05614        -1.155186      0.671643      0.757853
Si	      8.26862      5.35735      8.17000        -0.034035     -0.124936      0.538935
Si	      4.29203      1.32908      4.06869        -0.445359      1.194446     -0.209112
Si	      9.63427      1.32497      4.15622        -0.303022     -1.590059      0.521876
Si	      4.04976      6.81253      4.23822         1.139216      0.185096      1.527948
Si	      9.68283      6.92787      4.00437        -0.914211     -0.326540      1.498251
Si	      3.93520      1.46728      9.93246         1.127521     -1.829033     -1.611197
Si	      9.55720      1.18007      9.45021        -0.208161      0.770881      0.259393
Si	      3.86059      6.54878      9.80583         0.001082      1.601121     -0.723875
Si	      9.28744      6.98386      9.67903        -0.002603      0.226471     -0.947870
Si	      1.27265      1.63207      1.48978         0.291720     -2.234717     -0.812925
Si	      6.95285      1.05632      1.48721         0.119713      0.273318     -1.557970
Si	      1.29190      6.54855      1.47224         1.054958     -0.687570     -1.928458
Si	      6.55217      7.07955      1.32661         1.742718     -0.086161      0.103785
Si	      1.41167      1.24715      6.68535        -0.234018      0.858864      1.322024
Si	      6.80249      1.61922      6.76832        -0.013730      0.817561     -1.202190
Si	      1.45548      6.98660      6.67605        -1.298897     -0.916097      0.928857
Si	      6.82395      6.79369      7.11307        -0.025389      1.198403      0.241943
Si	      1.47613      3.96431      3.99258         0.832098      0.205881      0.859563
Si	      7.00018      4.25851      3.85460        -1.517552     -0.742082      1.260703
Si	      1.57452      9.61010      4.01204        -0.726030     -0.320555     -0.981979
Si	      6.87405      9.34144      4.20009         0.620712      0.272788      0.246027
Si	      1.09932      4.20505      9.26559         0.071533     -0.910928      0.685401
Si	      6.75620      3.99298      9.58835         1.154828      0.561989     -0.504603
Si	      1.48344      9.20974      9.42441        -0.200460      1.905369      1.240000
Si	      6.85912      9.69062      9.37853        -1.597332     -1.112833      1.481625
Si	      4.02137      4.04239      1.34768         1.730992      0.398507      0.135833
Si	      9.44545      4.04944      1.26012         0.029354      0.154078      0.188288
Si	      3.96513      9.58664      1.42344         0.839434     -0.636439     -0.790396
Si	      9.93800      9.52533      1.56769        -1.045546      0.558815     -1.335791
Si	      4.23362      4.15370      7.02080        -0.341780     -1.164944     -0.656297
Si	      9.72722      4.31730      6.48491        -0.964980     -0.074766      0.479178
Si	      4.10527      9.73001      6.86876         1.300582     -0.589184      0.190301
Si	      9.34661      9.78138      6.93416         2.531338     -1.670414     -1.035029
64
Config_type=aimd36 Weight=1.0 Lattice="10.937268660 0.000000000 0.000000000 0.000000000 10.937268660 0.000000000 0.000000000 0.000000000 10.937268660" Energy=-338.4605921900 Virial="-1.87486 -0.09071 5.91081 -0.09071 -1.06559 1.08160 5.91081 1.08160 1.04201" pbc="T T T" Properties=species:S:1:pos:R:3:forces:R:3
Si	     10.80616     10.85631      0.11150        -0.304393      0.695565      1.092457
Si	      5.67600      0.21468      0.01456         0.266209     -1.687557      0.276435
Si	      0.19835      5.71097      0.07664        -1.512145     -1.683994     -1.817870
Si	      5.49260      5.20261     10.86542        -0.827474      0.786334     -0.343108
Si	      0.14665      0.26440      5.45487        -1.036036     -1.021633      0.404763
Si	      5.36231     10.79328      5.61345         0.483930      0.420166     -0.380307
Si	      0.04895      5.53052      5.69946        -1.726424     -1.056505     -2.707714
Si	      5.44672      5.61478      5.35829         0.010218     -1.303052      0.182654
Si	      0.07384      2.64303      2.47294        -0.982640      0.266508      1.067022
Si	      5.23328      2.78239      2.76408         0.777676     -0.169866      0.341045
Si	     10.64016      8.27034      2.80765         0.674588      0.242150     -0.253276
Si	      5.39049      8.28396      2.58244        -0.056650     -0.947303      0.091141
Si	     10.83353      2.95306      8.23032         0.832058      0.564983     -0.109383
Si	      5.73583      2.63745      7.72235        -0.756106      0.386432      1.655564
Si	      0.17074      8.38404      8.18283        -0.267580     -0.669404      0.746885
Si	      5.48771      8.24412      8.14177         1.260575      1.864250     -0.796084
Si	      2.93681      2.52602     10.80028         0.111185     -1.524030     -0.088328
Si	      8.25102      2.89017     10.76828         0.655774     -0.406937      1.071054
Si	      2.89971      8.22936     10.79800        -0.129301     -1.333371      1.034197
Si	      7.93006      8.03929      0.18172         1.000354      0.204578      0.000048
Si	      2.50405      2.74930      5.49471         0.782446     -0.556903     -1.472559
Si	      8.23079      2.68657      5.47416        -0.517259      0.025211     -0.166243
Si	      2.74474      8.10480      5.66702        -0.614709      0.248075     -1.073267
Si	      8.11562      8.16119      5.26959         1.275767     -0.341076      1.471370
Si	      2.60797     10.75674      2.86997         1.185421     -0.517951      0.430958
Si	      8.13296      0.18552      2.80107        -2.465997     -0.368979      0.045736
Si	      2.50638      5.51147      2.91614         1.371196      0.415898     -1.640361
Si	      8.20196      5.15587      2.71722        -1.473903      1.466919      2.031307
Si	      2.60969      0.04884      8.44724        -0.105282      0.568536     -0.362706
Si	      8.68688     10.92828      8.27055        -1.890482     -1.045739     -0.307702
Si	      2.89284      5.29799      8.08901         0.293140      0.255915      0.839394
Si	      8.17872      5.73394      8.27246         0.588219     -0.924769     -0.454205
Si	      4.14557      1.31973      4.17627        -1.805787     -0.589375      0.227183
Si	      9.49799      1.35453      4.10229         2.194092      1.286475     -0.410124
Si	      4.07457      6.94154      4.02521        -0.566596      0.095746      0.206637
Si	      9.53556      6.69156      4.10183        -0.366559     -0.370273      0.077619
Si	      4.52059      1.11231      9.25065        -1.204973      2.273666      0.131634
Si	      9.81666      1.47600      9.61815        -0.973209     -0.121486      0.602406
Si	      4.32909      6.85842      9.36269        -1.746411     -2.093081      1.764349
Si	      9.53299      7.11512      9.57379         1.180070     -0.409274      0.754313
Si	      1.51835      1.12777      1.34365        -0.439306      1.025224     -0.530780
Si	      6.79352      1.74829      1.39453         0.890870     -1.000128     -0.114630
Si	      1.28670      7.01484      1.48371         1.475881      1.056720      0.503629
Si	      6.62792      6.50745      1.49398         0.806357      0.730313     -0.101273
Si	      1.30172      1.52373      7.03796         0.226045     -0.366124      0.074364
Si	      7.11423      1.07889      6.76133         0.093256     -0.200981      0.184517
Si	      1.37861      6.69952      6.95439         1.389485      1.297056      1.457622
Si	      6.85352      6.82370      6.77524        -0.572524      1.138545     -0.275425
Si	      1.13228      4.12848      4.05085        -0.084238     -0.897006      1.017232
Si	      6.68903      3.92748      4.19623         0.494587      0.990639     -0.525527
Si	      1.11729      9.41950      4.35994         1.399912      0.205762     -0.946335
Si	      6.66637      9.45552      4.13443         0.080313      1.554649     -0.912613
Si	      1.61270      3.96893      9.61740        -1.350343      1.601379     -0.235335
Si	      6.93710      4.10815      9.34446        -0.978350     -0.362699     -0.308658
Si	      1.38582      9.66383      9.92822        -0.223756     -0.812701     -2.233535
Si	      7.01830      9.54248      9.63012        -0.547927      0.823642     -0.545255
Si	      3.95597      3.98028      1.31368        -0.651530      1.579476      0.372767
Si	      9.61737      4.24562      1.33887         1.589359     -1.294004     -2.119037
Si	      4.11587      9.67121      1.20085         0.126561      0.729986      0.576451
Si	      9.20971      9.67809      1.47274         1.007276     -1.362957     -0.818683
Si	      4.10223      3.95342      6.54921         0.869057      1.210705      0.614236
Si	      9.39222      4.25210      6.77307         0.333246     -0.051053      1.273081
Si	      3.83199      9.66646      7.02122         0.971565     -0.993548     -0.270488
Si	      9.76996      9.54636      6.66963        -0.518793      0.472258     -0.299260
64