8000
Time=20000.00000000 pbc="T T T" Lattice="54.79564372 0.00000000 0.00000000 0.00000000 54.79564372 0.00000000 0.00000000 0.00000000 54.79564372" energy=-30847.58981276 virial="-1718.09776830 -75.15337497 -19.34458800 -75.15337497 -1832.79753050 44.54329265 -19.34458800 44.54329265 -1833.61444898" stress="0.00003264 -0.00045674 -0.00011757 -0.00045674 -0.00066444 0.00027071 -0.00011757 0.00027071 -0.00066940" Properties=species:S:1:pos:R:3
Si 1.12985856 11.11883277 51.79971449
Si 46.24185891 0.18528498 43.15877399
Si 12.67417950 2.56238114 17.81699714
Si 45.81363695 18.11835423 7.63781478
Si 0.81014812 47.66638456 1.81135588
Si 2.04705422 11.52319619 34.21385691
Si 46.91636053 22.13716638 8.51935570
Si 6.11234564 23.49645031 42.35767689
Si 1.35350600 13.24418298 8.58133955
Si 37.82143221 33.44567287 26.18854036
Si 5.51056082 11.43454027 20.13665854
Si 15.00424899 9.91587104 43.47049395
Si 23.77114000 36.40742866 39.75087660
Si 42.13501361 1.75880203 0.04072239
Si 8.26202753 16.45828463 46.94502963
Si 48.13858008 4.76220052 22.90206208
Si 53.32302008 6.12826923 8.45150953
Si 29.96833625 9.91744684 14.00411622
Si 4.91167899 48.97234130 18.39587040
Si 9.62469902 6.28274953 19.48475936
Si 22.46675919 9.25271795 35.89537963
Si 47.83293817 15.15613802 0.76929944
Si 1.26995042 8.86441501 6.70394462
Si 53.56149351 4.13845982 42.61520248
Si 8.85969696 48.09273771 47.11372086
Si 24.36963355 15.25198840 48.53967842
Si 2.31776117 18.05495848 19.92832784
Si 32.20946502 50.20967071 36.98809510
Si 46.18509802 6.94356943 5.13509626
Si 53.80584459 35.71657915 13.46745688
Si 29.49033587 52.64712017 15.64040229
Si 45.62352563 49.23394195 8.71160364
Si 4.82755039 13.76756975 31.67030676
Si 40.23409007 8.06503455 7.76885204
Si 29.20057980 45.93536553 40.35812127
Si 37.23736464 17.33994934 54.18997436
Si 54.04067177 4.07536952 1.19476824
Si 49.68478721 49.86844448 52.07479985
Si 51.48452362 5.53647677 24.55412813
Si 49.30386492 4.68061339 5.19430864
Si 20.90671331 14.80440065 38.61132703
Si 46.09160405 0.15585963 15.82889028
Si 44.39115152 3.82699786 42.46937621
Si 52.94744955 6.69574716 18.24149702
Si 20.21838100 13.40704362 20.44280128
Si 52.57756593 38.81887532 26.44949779
Si 12.31202312 50.80997543 34.95860060
Si 4.12003928 8.51949758 11.33063047
Si 7.36041764 19.18600756 44.39765324
Si 49.62745376 5.91002821 29.61045860
Si 45.17883194 50.58603259 39.79325253
Si 2.41643973 6.83169125 23.58206799
Si 2.14552509 45.29298430 28.89798322
Si 34.80777191 27.10722030 46.08524291
Si 0.13777308 9.82574081 39.74484572
Si 20.17530194 51.26723339 35.12284562
Si 41.33847291 54.34333309 43.85076111
Si 9.81011199 54.15784245 46.28416299
Si 53.65450783 19.23277860 51.78319723
Si 15.61250126 5.37470931 30.01622876
Si 5.87007677 3.57113563 41.78744819
Si 10.55676441 1.37974930 4.68233206
Si 8.12389445 2.20779920 51.49447473
Si 22.53646410 10.33338535 47.92359017
Si 11.30994093 7.18873839 31.37636886
Si 2.74719437 18.12824520 36.70387828
Si 44.79305076 27.97238974 52.69893277
Si 54.23744461 8.27282498 35.58377625
Si 19.82656954 51.73585676 40.70101836
Si 1.43200213 5.93403649 50.11508482
Si 42.22473528 1.20821170 5.33467748
Si 19.04661063 23.04808339 38.91327967
Si 46.62484826 41.96301215 46.40758054
Si 30.18060694 19.17307667 49.82820026
Si 0.89797421 53.66789699 49.06824675
Si 0.97126550 4.67888547 13.35333064
Si 10.18481580 17.37074720 49.09875540
Si 54.38925689 50.40393263 9.50589740
Si 23.51398722 19.20561260 5.17035911
Si 42.53056494 40.85857682 2.68327290
Si 36.09551426 2.28264049 1.39211792
Si 52.67628338 23.16895823 45.69565419
Si 5.31396340 27.77336135 36.08506815
Si 18.28231970 41.39916323 54.41257131
Si 2.97142878 31.83099051 10.95031828
Si 51.42599261 6.56397413 38.89558849
Si 22.20929841 6.71575732 45.89879447
Si 15.61289624 9.19598135 48.35881155
Si 20.71835504 9.48948085 9.41762052
Si 28.02806297 42.19297885 1.58960834
Si 5.16800797 44.63624382 19.43582966
Si 34.34506044 6.86136392 18.33166316
Si 11.49863019 37.22487853 16.66633833
Si 38.24776047 14.08392202 16.38758967
Si 48.81905013 17.71052942 16.11452640
Si 18.26137408 30.44758197 29.79202214
Si 54.13688938 19.37514638 1.95744373
Si 5.27677165 9.10512442 24.77577408
Si 8.75016918 6.25733366 21.70312036
Si 2.43501430 18.29163208 3.57983355
Si 13.51739797 8.48079016 46.22061388
Si 26.04937242 12.97094640 16.90584936
Si 11.28497020 33.96301223 29.51291603
Si 39.88528921 49.07361165 31.36505266
Si 15.18572138 49.37125711 25.97470739
Si 30.52699869 41.42942722 13.55512489
Si 13.34257294 46.15161303 13.47830573
Si 48.43388716 12.98794131 36.60868977
Si 52.19169870 44.91575114 3.40315699
Si 43.12887996 45.28206147 42.02464782
Si 15.53962642 52.51892441 20.16347541
Si 23.34042043 0.12309746 18.67491168
Si 17.34477987 41.76916214 24.28529840
Si 21.91161689 8.67742008 31.32112965
Si 49.03724741 10.15108482 31.57217581
Si 46.20124225 6.48426012 16.20902615
Si 4.30316723 35.49950596 18.06539215
Si 33.53485009 44.59119731 16.70976393
Si 36.12767120 44.40984830 19.84979703
Si 1.49126041 9.44202877 1.21714599
Si 35.49632575 6.94387740 30.77576794
Si 29.27139722 7.53837195 45.42911307
Si 3.52273275 24.05968270 35.84084389
Si 44.38795445 6.12375455 28.40449573
Si 49.14874459 21.63061087 45.22564746
Si 43.18833734 1.41143339 42.78161876
Si 5.79096802 5.53237371 11.78091833
Si 48.23978657 54.43956951 34.06028712
Si 45.64363782 19.67284429 40.51622158
Si 6.94796934 23.44330969 19.92116078
Si 2.24785907 16.14068221 16.14113245
Si 8.86709384 12.64156722 34.57113651
Si 32.43836642 21.26558440 48.96132353
Si 23.08926229 23.05601480 3.69258857
Si 29.52550940 17.67098053 33.19298445
Si 4.47198779 51.65817468 14.29896217
Si 5.10268068 4.55813516 20.42016419
Si 1.79218001 42.03740025 31.55291024
Si 31.19015453 6.92750016 39.32391399
Si 22.33109922 6.85755077 41.53660117
Si 12.95327441 5.64622931 18.30485117
Si 12.23813802 11.26976808 23.37327306
Si 6.59967942 4.67409181 0.77558668
Si 13.59658108 19.59054580 21.10981864
Si 49.49074181 22.66049374 33.64403093
Si 20.43528254 41.77196342 10.76579682
Si 5.06996546 3.10517425 30.47304244
Si 41.95378003 36.90478692 50.25520392
Si 9.81117203 48.10388342 31.13020247
Si 53.50671761 18.87873795 29.86737936
Si 8.60150954 6.94727302 41.18165335
Si 24.97539035 17.97215572 50.40377127
Si 11.64728916 16.82081016 41.71826012
Si 26.69061485 38.36601274 39.18940376
Si 23.19596821 8.24086091 28.18335636
Si 42.05830196 50.59516557 1.99057561
Si 48.31445309 7.13402821 33.96728103
Si 54.64269289 16.05835081 6.15249506
Si 35.55971367 6.87183966 43.18470402
Si 0.53793416 47.18472993 27.15005928
Si 44.04954690 23.84757390 53.29969379
Si 37.30928029 8.76503888 29.92805904
Si 40.96296755 11.78699483 54.73710352
Si 7.93590248 18.93641575 16.57968912
Si 46.64811552 46.89693590 40.68144540
Si 7.74595541 15.50163931 49.52363008
Si 48.00958081 23.38637846 52.94409629
Si 2.01788975 18.86388078 45.24806189
Si 37.83536514 15.51014209 4.92890325
Si 47.97905809 14.82832988 53.10641896
Si 19.08683670 10.68630719 40.74201980
Si 0.45280134 2.61283419 20.53761051
Si 18.31813277 52.45251308 51.49856930
Si 42.56951973 17.08913968 5.74306387
Si 45.87278836 28.95120398 39.84770781
Si 11.29350239 16.72871710 6.06940220
Si 5.73860716 6.24193170 21.95273214
Si 47.14234160 23.44214363 16.81722542
Si 45.86273825 29.44610431 51.49949693
Si 15.50772461 31.85135744 10.40645902
Si 54.53989510 13.59265728 22.41800673
Si 54.65609154 29.21261746 13.42545840
Si 1.97476974 30.91693078 6.09791217
Si 50.27221988 24.96167724 33.85529314
Si 51.12713600 25.58622232 18.84201140
Si 34.56169612 10.11676223 19.09263692
Si 16.13095641 14.28567778 47.38486700
Si 21.39880455 4.25896219 31.61290583
Si 51.01340483 7.77943451 33.00647242
Si 49.73285278 2.47963162 27.51648187
Si 40.60451024 0.80049811 29.29050246
Si 6.52680128 27.02557385 32.41764143
Si 52.45982220 2.51919464 16.26802001
Si 0.66430373 54.26522595 23.70274592
Si 5.87333343 5.66629527 18.46195902
Si 6.01512388 5.78120854 29.78541425
Si 36.13378184 40.81480880 9.26776169
Si 5.64779788 38.23579646 10.80065638
Si 1.85634693 18.83545934 15.98430258
Si 48.61991575 10.55613547 18.91879043
Si 10.90765273 5.47456345 39.15505060
Si 6.49014227 48.32251678 16.82590922
Si 43.36348981 13.63662221 31.84890984
Si 27.12401497 9.08417135 30.42041855
Si 0.09236468 27.98772580 24.79283325
Si 12.18837428 9.58430092 32.01514682
Si 29.13590470 12.78144797 42.22519629
Si 5.84627739 39.31970509 21.28499955
Si 48.75698090 9.83725883 23.34525063
Si 11.15762708 27.57683583 51.51036159
Si 2.20049418 31.54800727 35.50519972
Si 25.10183167 2.38397631 23.60396371
Si 22.19377049 50.31877452 17.51488893
Si 19.70299542 12.77823268 2.02734400
Si 52.69708348 8.75095098 42.20197799
Si 39.98538533 6.84329378 15.97282646
Si 51.26237785 4.44074060 26.54608716
Si 37.86899715 3.98345150 35.50562710
Si 3.24350442 17.43949530 34.50792011
Si 43.37924664 52.82177665 41.67605926
Si 2.59804333 3.38276936 8.25604221
Si 4.93370408 21.99028380 23.55163296
Si 14.18756880 23.04812731 16.05851940
Si 5.19691246 17.14372082 42.91667248
Si 45.20478798 39.89535069 50.94189506
Si 3.39702383 23.16440047 50.62604625
Si 16.17829633 18.04184160 17.55038209
Si 50.55133560 3.72175537 44.27031069
Si 36.11148544 2.24381151 4.90058359
Si 20.35808029 2.13313635 32.46421790
Si 8.63943379 53.82724248 4.96682279
Si 12.84291225 5.05167464 29.83620089
Si 33.13678857 53.20368483 54.43012083
Si 26.39853815 6.52519963 19.52187098
Si 43.62896198 21.62958149 51.53830037
Si 12.95907713 3.81393643 41.64996188
Si 50.62917650 24.20272524 52.54964931
Si 49.18767561 2.00618440 32.80587261
Si 8.24512077 42.42495980 51.93006302
Si 51.72128100 24.59252973 13.65245849
Si 42.85297435 32.54822783 3.13443655
Si 53.16887235 15.23270633 8.25182834
Si 20.49992974 14.00688927 50.50631809
Si 35.87973095 9.83305759 41.02242077
Si 8.12524047 29.93712624 44.73836494
Si 17.86153983 30.55607919 17.73915973
Si 15.90741652 5.93223631 42.86095167
Si 11.37290593 6.25144842 6.89492489
Si 38.15279763 2.93550710 11.80804779
Si 52.75370998 10.56480184 18.88606841
Si 47.30191585 43.66114872 16.38170785
Si 10.21176591 25.45390437 51.74156281
Si 45.24339938 3.02405494 14.37904615
Si 2.93820357 27.30378065 1.66082689
Si 1.78862156 17.26807996 51.62049689
Si 36.42688643 21.14972724 51.77286943
Si 1.70456852 7.35865411 28.55799079
Si 52.35556867 38.04740310 49.22002997
Si 9.46731418 17.24980210 54.25482498
Si 4.56605444 2.37792893 11.29218027
Si 43.78971975 12.69438837 16.44022029
Si 15.38238276 31.32806542 24.08193479
Si 11.15943349 17.45897351 10.12660514
Si 1.87099405 19.46062927 53.55010202
Si 51.05499573 0.32755808 35.96877480
Si 51.83201080 27.26534402 38.71152418
Si 6.57913386 22.14961921 16.24000396
Si 17.17447161 26.54281402 12.39437402
Si 10.89666028 45.56750420 2.35848896
Si 12.42939484 28.65811202 20.50179619
Si 2.73349445 41.21105143 24.32204192
Si 51.95877198 39.58850009 36.95725365
Si 9.95914592 22.67782846 7.14560301
Si 42.74558197 23.08350953 7.48889503
Si 3.13865085 43.31320730 27.81637415
Si 3.10074017 32.70248743 38.18468766
Si 54.30287444 15.14746077 25.98464124
Si 51.18475929 16.32671830 32.45696396
Si 48.64992817 8.40582829 14.54573366
Si 5.96383930 44.92204496 39.38493055
Si 19.90260017 35.64615985 38.00015209
Si 34.71964940 37.40756430 44.84300225
Si 15.29069530 3.31573201 26.83334683
Si 20.30481490 14.79601718 24.85243096
Si 8.13832595 11.90963492 24.53179342
Si 52.98740454 8.30595292 9.42192843
Si 2.32783666 4.80016637 27.68203023
Si 10.90970328 15.34964577 25.63243091
Si 52.45586059 12.40481405 34.39309339
Si 23.01432459 16.82160624 42.14533181
Si 50.33198567 44.56428239 27.65621735
Si 8.02511319 20.76957672 39.55456107
Si 45.10310892 23.43354599 29.22703708
Si 50.30674634 26.09138809 21.09961120
Si 14.75899835 49.04672964 45.90189806
Si 8.07466527 16.63542280 43.53981147
Si 34.75728982 5.14511745 49.42321655
Si 48.71300402 28.33344829 40.53122277
Si 44.29882697 26.02958490 29.98767915
Si 3.13224974 16.28017672 21.74659634
Si 43.28128295 14.84246038 26.77017889
Si 12.31376207 10.86045455 52.50308391
Si 20.04790565 16.60936100 44.16616959
Si 41.05424794 33.23900591 52.14920683
Si 48.97008091 9.76076552 52.58681806
Si 14.99323598 14.65505399 8.70668070
Si 50.07710020 10.41793163 43.33278816
Si 53.71433125 35.30821068 39.36315238
Si 5.04667453 27.81367754 7.29318435
Si 50.36832993 25.31196830 39.72640281
Si 27.87738247 29.62943375 44.92105509
Si 43.29760445 17.50416825 15.85729426
Si 4.34561086 33.95033954 36.86953126
Si 1.33663938 51.10075251 53.70370766
Si 24.57575291 31.94988722 29.21126943
Si 0.56179522 27.31336158 51.35022943
Si 50.10407848 23.47256007 5.42041437
Si 44.48675372 10.84778698 50.30605748
Si 48.27264248 5.56627240 41.72508840
Si 50.63487069 43.76225470 49.08912934
Si 3.53315113 39.80367459 47.85957266
Si 16.11087656 29.49790641 0.49676400
Si 12.02423825 47.40957592 53.88547189
Si 11.07016509 24.53124543 46.98195620
Si 35.14972662 22.93947268 7.48845273
Si 39.41626432 49.67474230 2.48186779
Si 36.35610891 23.49133550 46.63303641
Si 14.68513886 29.66335428 34.98930713
Si 35.38051808 17.44819063 46.64867587
Si 6.81950168 16.33664737 3.25272060
Si 53.96238783 6.49047354 45.15783851
Si 18.53020024 52.31789390 9.14022178
Si 46.07001114 24.82678148 52.48580209
Si 31.27524694 0.43290089 12.66144639
Si 8.70133371 19.50165139 10.12476842
Si 41.89645409 9.09706806 42.71864095
Si 28.00092784 26.76600764 33.66929961
Si 6.30769701 13.25652389 49.24418417
Si 5.67965565 1.31656615 16.14962566
Si 18.52788878 32.61710919 9.22229719
Si 45.71282997 16.41136848 48.26614369
Si 44.36940391 22.42638717 21.25660704
Si 0.25866552 40.22121862 3.56863365
Si 53.87041292 20.87192579 7.54305764
Si 5.05965058 22.11397930 27.08943665
Si 41.04010794 47.89875462 52.14738363
Si 43.49158875 44.20058986 47.48958699
Si 4.82512432 33.43109276 10.14205489
Si 5.56587144 47.83537728 6.34321628
Si 14.29258172 40.01198437 32.06060220
Si 9.40516532 27.52731837 1.78251135
Si 8.40235073 44.23041149 11.33494541
Si 51.97608000 18.34283600 31.81006779
Si 52.37990442 26.89178474 32.99657754
Si 7.83142674 37.50141422 44.54638677
Si 24.80333211 1.64795490 25.62883773
Si 5.05915080 19.55868009 23.90911178
Si 43.06340860 26.06139627 5.07992597
Si 5.13782092 19.29845993 35.76326376
Si 53.56213147 38.10871164 52.23797545
Si 20.65414438 20.95466995 36.11719279
Si 10.07369299 21.46603943 27.33905930
Si 1.10384363 5.34726758 16.74384974
Si 4.04259049 19.64635547 32.49072890
Si 6.60870201 15.95381721 11.10728052
Si 15.73234622 19.80375696 11.20577884
Si 29.62330481 19.40335371 39.83357002
Si 52.21875542 50.27099439 54.40724348
Si 54.56134229 11.79155656 18.65780275
Si 13.96948003 23.87628220 42.70824727
Si 8.40849012 32.48624145 22.59383385
Si 9.97452854 38.67351881 35.55430667
Si 32.14352301 11.80376873 26.77583681
Si 0.83337191 21.04271710 22.30916954
Si 1.14801620 8.98863872 34.12082572
Si 2.36359939 29.82956192 18.77295914
Si 49.26914504 17.58512344 32.06271821
Si 5.77371435 25.14228262 50.89983784
Si 29.36566995 15.20001682 26.62633795
Si 15.99462314 9.66273245 24.30307560
Si 53.95441482 19.67217006 23.63669056
Si 4.74300416 22.12856976 37.48181697
Si 11.78370220 16.70997614 38.86223654
Si 11.99895727 18.25803483 15.03733096
Si 4.09071828 24.59078234 38.49629478
Si 43.02782302 34.39562179 43.42659967
Si 47.18673900 35.87481287 53.78475383
Si 45.57236765 32.86400084 29.45869649
Si 46.58868649 20.63541760 2.22582896
Si 52.73847460 29.14046027 11.57306017
Si 7.78756087 18.34821788 52.79833655
Si 33.39909852 24.43965575 14.14964040
Si 0.92542421 20.50790952 12.17632717
Si 2.34979307 35.78570564 47.88168494
Si 52.44236971 24.62592708 49.08899649
Si 16.79436280 9.59802498 45.37331473
Si 36.24007162 15.74413264 8.13078439
Si 34.82346640 28.13409048 49.39500541
Si 5.80103644 44.19941992 6.33643032
Si 13.77609270 25.93006212 35.25964948
Si 23.39198589 10.73875745 4.35371524
Si 4.15159827 28.27287543 33.17391542
Si 15.95876398 22.83929299 29.93080244
Si 17.74532086 32.49822286 19.14407682
Si 1.73144343 20.38912762 37.07430193
Si 54.03645288 26.67233929 53.76974126
Si 15.28152459 36.21040335 49.97381661
Si 49.94083562 42.60673290 8.96781448
Si 15.08093492 15.54775819 1.11080670
Si 2.00968338 25.92774088 10.71687986
Si 54.47891553 25.77912360 9.42382861
Si 4.54489860 30.18513786 10.94741136
Si 8.94467510 47.90656848 28.09472025
Si 46.08402965 23.64576247 5.12759391
Si 1.16208040 37.56013105 40.91149862
Si 7.68922613 27.79706604 47.10179577
Si 13.04041976 0.14146318 2.63917511
Si 45.46359981 13.78190232 27.18089338
Si 44.18053759 23.92148106 24.05938881
Si 51.31404148 40.02035361 50.07533021
Si 41.24915158 27.19826590 16.55914686
Si 43.53465089 41.94560576 20.53864884
Si 8.11720386 14.36845409 17.57214019
Si 2.29667448 8.97986705 21.80672567
Si 22.19061461 27.71334068 47.39745700
Si 6.57745254 16.38871198 14.37107266
Si 11.73334405 40.90021010 18.47675594
Si 53.71230361 42.43912794 13.99790200
Si 45.89842570 3.60629919 22.54687697
Si 10.25396064 34.79959669 23.48500001
Si 3.20970543 40.87346014 15.73105037
Si 37.63800336 37.91519810 35.18898631
Si 33.32732265 26.30690517 26.99111337
Si 46.57106151 37.79733906 19.15905746
Si 5.48892007 20.54957080 21.48480679
Si 4.42967948 23.93860817 16.03796823
Si 4.83552654 37.65587570 19.58843111
Si 19.72930375 17.20997941 27.20670132
Si 29.26557499 44.12506797 1.56969114
Si 6.37466017 27.85566871 13.80592210
Si 30.64910679 28.31717031 22.50269323
Si 45.32849781 42.18414223 35.29489394
Si 7.62147225 15.49252324 20.05938394
Si 25.21064371 15.33909176 26.87648410
Si 18.12379961 13.75213548 11.25870346
Si 16.30256334 51.03125447 31.42113456
Si 45.11879474 32.52563027 24.05203122
Si 16.23114239 28.67551509 31.07319867
Si 15.14442730 20.99549642 28.77270224
Si 12.10158392 14.71588822 28.15048018
Si 19.92392144 23.05425236 35.48327428
Si 41.36555020 34.94614240 48.83496278
Si 39.14963506 21.31120778 38.40430014
Si 10.19982433 19.49355306 54.10796357
Si 54.14290843 39.39052948 48.82838296
Si 23.63788757 44.40179493 34.38304267
Si 49.22165477 49.88834258 4.32004632
Si 40.60201522 9.18463928 47.83854922
Si 12.07285895 20.63760408 49.58713411
Si 37.29777295 43.71848656 50.27818777
Si 52.77058648 36.13491605 3.06298894
Si 6.05690812 25.99542954 46.71891597
Si 12.76431380 52.62873509 41.73509743
Si 23.02182869 47.68760221 34.25938549
Si 41.50671031 40.61479520 36.54450912
Si 10.15810681 26.33805670 8.98970544
Si 49.19458661 31.30334475 31.88463412
Si 7.04534761 30.79744812 42.55239275
Si 52.78573984 36.80882226 30.04994898
Si 13.28993538 43.29073708 5.54944249
Si 30.58031825 48.03323758 53.39580537
Si 12.73332715 37.36151932 20.74673274
Si 22.20916023 52.83436721 39.77743249
Si 1.72808394 31.27802530 1.58109284
Si 7.03093217 30.01972143 24.77117255
Si 10.67732858 32.55196420 47.51980382
Si 15.55800944 46.03855397 16.82162676
Si 39.50696570 9.40929306 30.26970720
Si 46.79585469 39.55697254 37.10527967
Si 6.45619690 16.94351341 54.58558345
Si 18.19521970 32.65100139 53.52764387
Si 5.36513489 42.13492573 46.27185249
Si 20.04945315 28.17500855 17.40152901
Si 14.78979750 38.87879422 7.20090406
Si 0.94291034 35.10801145 40.38561355
Si 23.50815282 22.02849307 54.23320908
Si 45.24017872 51.04764408 51.54794207
Si 23.41220102 44.91034108 46.74332966
Si 49.12643084 45.96422259 48.27362659
Si 53.22719098 42.16437535 31.27957527
Si 3.22095600 39.01585252 34.48343743
Si 20.95659013 34.06428512 54.54914941
Si 13.65456205 33.30077112 15.82104624
Si 35.56925054 27.26210198 26.93849645
Si 51.98442348 23.97659309 9.73092818
Si 54.25839617 49.80686850 21.62271259
Si 34.20626806 38.06491153 8.10349097
Si 0.48741977 46.86275370 30.22583703
Si 40.81791614 25.49564660 38.55229269
Si 24.31603301 46.74149079 5.07711180
Si 5.93672614 3.03363381 18.05214936
Si 19.76638116 39.48580443 12.27143127
Si 17.65783510 35.88292953 20.78759719
Si 51.08790421 40.56552091 20.24029912
Si 31.93457974 34.58426125 0.60847010
Si 12.47446683 20.54201753 23.02410030
Si 13.38755187 15.93476520 25.85733877
Si 15.50769386 45.94108840 14.42333227
Si 39.19594115 37.65559440 51.13886592
Si 1.50972753 43.93878195 4.04543973
Si 50.82266062 26.97819210 12.71960754
Si 25.51962524 46.75426629 7.78729648
Si 15.19806866 23.56641950 34.41735930
Si 2.53447204 32.17314385 17.29542464
Si 6.00797558 48.67382178 12.86649267
Si 4.28338821 13.66272376 35.15091592
Si 10.11790952 19.17789566 33.56332024
Si 5.81936825 49.88678363 31.82249252
Si 16.92591704 10.65337075 38.89536603
Si 0.79817227 30.26280149 20.32247062
Si 2.61865745 23.68234493 29.14797932
Si 6.11765965 53.19137854 34.09712624
Si 30.92769674 42.16600519 16.41889475
Si 48.52330215 36.53481215 44.64341604
Si 45.65236010 15.03681698 21.91568062
Si 17.78815538 50.70866245 34.93812990
Si 19.70418557 25.25705111 47.73902636
Si 19.27095012 31.74976726 21.14184519
Si 13.85252339 13.63181965 5.47402947
Si 13.04851695 36.29145905 38.91890736
Si 54.34709905 47.63893529 25.00929037
Si 1.45610276 47.35409503 50.36331345
Si 36.79208209 40.32234343 48.63930458
Si 41.44334366 4.39223227 23.39405503
Si 1.57573044 14.36459100 20.93455238
Si 47.49130156 40.91587409 15.27235654
Si 41.56721853 1.19699478 19.28606965
Si 13.14879769 34.71296646 41.38925911
Si 17.86715262 48.59361117 19.78967367
Si 2.30586590 37.26528325 26.36048647
Si 9.26787169 15.78533161 35.63231990
Si 14.19706669 20.75328714 4.74077367
Si 32.89215302 12.82333032 32.41995296
Si 7.65775708 17.79191240 26.14688133
Si 15.47217077 41.46616303 18.87192066
Si 37.49312096 25.31721139 39.41502000
Si 5.13354776 41.16469631 44.18514043
Si 49.86424952 28.36586815 32.15754763
Si 1.82275868 22.57587444 53.67557512
Si 16.51707216 30.83896192 36.78715187
Si 11.41225029 26.91965567 12.82235832
Si 15.24791253 31.04520924 49.78032506
Si 2.34590078 49.67709120 43.87906109
Si 43.70604424 32.79063386 40.94618845
Si 5.55157001 24.68786932 44.98510898
Si 48.83875962 40.33668568 45.42990006
Si 2.88647499 37.47368235 51.75477065
Si 50.38092984 24.57301865 27.71047636
Si 11.42748856 46.69998644 10.92375823
Si 8.90632491 44.25446944 53.36123163
Si 3.73857871 21.72272449 13.60442628
Si 48.54718390 23.59925510 39.73628186
Si 53.46260302 27.44076951 18.92254693
Si 52.33063891 52.82663845 51.45501420
Si 39.88926269 26.37044286 24.94280440
Si 52.01313488 54.75597235 14.52730013
Si 6.55238043 44.40835343 2.16034145
Si 3.44561033 51.67336519 53.28864901
Si 7.04813453 20.32569802 5.96241983
Si 30.80659339 18.24044120 52.92167554
Si 44.18675540 52.54952265 49.37295273
Si 7.93074682 32.81223019 1.69495606
Si 43.18661108 23.75193752 0.76144956
Si 17.78123694 19.75928026 12.32921511
Si 7.01454291 48.57168842 49.56900736
Si 46.40673246 34.18726834 5.70143389
Si 5.34317497 53.82829498 45.36370041
Si 9.67800106 29.28488886 15.40457236
Si 5.20971707 25.71458485 8.13276554
Si 3.16085886 24.11339843 2.69563606
Si 53.86339699 53.35177236 9.82450661
Si 15.02801455 33.98637731 14.08305161
Si 12.91887386 50.96218359 19.14824241
Si 47.97415763 52.62611018 4.99002391
Si 50.11089415 23.23952397 47.71395924
Si 15.01259452 43.29326238 27.33528604
Si 40.18461896 2.56957809 39.12314584
Si 1.72137902 37.35585104 21.82551009
Si 1.25178865 30.43808442 11.12652064
Si 41.21879261 49.63473274 18.10253629
Si 48.81901744 52.95891684 17.76705376
Si 12.82165055 36.90831592 31.18325657
Si 47.02896817 25.68495187 18.25450996
Si 51.04577151 51.78484336 17.79308842
Si 39.08546920 34.78258242 15.05731950
Si 8.16326643 34.82786568 38.38236621
Si 46.02587499 49.47467827 12.49735674
Si 43.36538437 52.06073423 17.88648776
Si 54.70178758 6.62592112 51.59793265
Si 47.41031872 22.04225864 11.29789818
Si 7.13995769 25.76504221 42.56126366
Si 16.63489525 21.72135211 40.26463693
Si 8.20146613 44.46376486 45.10017948
Si 37.01626304 41.16468855 34.86028905
Si 5.90438954 47.88797075 23.38621435
Si 0.25801670 6.49343049 12.24810373
Si 13.44554451 18.90487171 27.94211346
Si 54.54039156 27.47142569 38.76582341
Si 3.28655997 48.62681254 37.87968054
Si 16.53657343 39.17458492 31.27167270
Si 3.97544612 37.09202860 24.65831762
Si 2.07374649 1.84923223 41.93041041
Si 16.47070891 44.62737251 53.03355590
Si 48.68316401 7.39254915 48.72396028
Si 0.07758830 25.17200276 39.50990934
Si 5.69993999 1.60993509 40.31685623
Si 51.18378414 44.38901647 40.15279529
Si 14.73706776 33.13120642 45.49283209
Si 47.96949922 31.21727120 33.70522004
Si 45.10428050 54.04416300 50.72357678
Si 10.22500194 22.74679115 42.26242363
Si 24.73804723 42.86122274 37.24834517
Si 2.82667175 33.95080336 13.09329766
Si 50.02766618 41.69608419 24.29933361
Si 15.64573861 52.56664252 6.00012009
Si 1.35958271 29.50665519 26.45482421
Si 8.16262404 33.24040029 46.92514635
Si 54.35153143 27.76823917 48.95671560
Si 13.58122923 32.90395341 36.67787956
Si 16.18000269 40.08430336 54.58347271
Si 53.48505824 34.35136490 21.15592970
Si 26.30561376 51.88887657 38.00641199
Si 3.25789558 34.11109009 27.66069557
Si 16.03012010 47.82386864 49.37028919
Si 52.96947442 13.54370485 52.49344239
Si 24.58324053 18.74060691 34.15868113
Si 50.70096322 39.81729601 47.22148205
Si 46.49873556 41.47325955 20.08116512
Si 6.95889411 28.88854945 1.86486528
Si 1.89931970 38.46456422 8.03230461
Si 34.93290433 43.12879670 7.85674167
Si 25.50154581 2.49245319 51.46572982
Si 48.52287002 14.24035455 21.18929516
Si 54.52810560 42.95060177 40.29308557
Si 44.93989134 44.47383692 34.45121754
Si 53.54636366 44.64049723 45.98172035
Si 9.26952966 1.37331482 53.41564742
Si 50.98753034 37.20363602 41.64398216
Si 13.93805667 1.38744257 7.83974684
Si 23.10575853 3.17884029 21.00292713
Si 20.96822770 1.88710359 25.29666761
Si 46.69174131 18.51453996 3.77572129
Si 0.84083183 24.82204077 23.06476766
Si 43.41785985 4.61696609 38.03748000
Si 6.37893846 17.12158365 46.25545683
Si 36.78313707 30.25876633 40.44714819
Si 0.70323391 43.80537942 12.87032242
Si 45.50190020 0.71159273 24.45013511
Si 37.96867659 21.17886286 8.03644692
Si 43.87545749 34.56089350 21.35842426
Si 0.07942424 42.41265385 5.20593859
Si 35.16742914 51.14658683 29.69677994
Si 46.03918508 34.45670467 22.58191263
Si 2.17610226 5.89992296 19.33803783
Si 45.42935835 43.09088850 11.95989356
Si 38.86956724 9.90034535 5.07971571
Si 47.80808172 1.80505134 15.86099573
Si 46.28964002 13.52900376 2.38959134
Si 33.50428558 15.87102579 10.74356226
Si 36.96249242 11.36426407 9.80600614
Si 4.70521283 5.02651259 4.93937305
Si 48.80777582 34.37561900 49.73241181
Si 25.93135508 43.63582358 34.13074991
Si 52.85744631 3.02102841 26.62988136
Si 52.77969859 54.33573779 18.56390561
Si 38.80097543 1.77532866 14.14637396
Si 15.16487859 1.30333529 29.43844069
Si 2.55526213 49.99742667 15.13088181
Si 7.99048302 43.51559976 5.94199978
Si 24.08412706 50.68564874 16.05968496
Si 26.81082313 51.82898152 30.69938782
Si 53.56083394 46.65388778 15.38361656
Si 2.81542695 9.05766784 41.56686845
Si 6.88229321 34.53208510 9.65783060
Si 7.17608877 20.95711858 20.00997076
Si 2.44458843 32.20543454 23.42670281
Si 22.43009652 48.51910852 37.17042360
Si 46.41592913 6.92745005 29.89764431
Si 13.83931643 52.48657153 38.87716836
Si 33.81895742 38.35123661 23.27779769
Si 18.81311664 39.06000271 31.10734865
Si 41.56675100 29.17873785 15.29427076
Si 20.88471862 48.37161107 18.27808936
Si 5.58165982 33.34707984 1.10205854
Si 6.65517490 20.32920260 37.44580158
Si 7.63806529 40.22539789 4.97394661
Si 29.58924819 30.14185406 30.70138150
Si 44.98150382 9.18331636 52.75516608
Si 15.78105680 19.11712758 39.69792585
Si 14.03992763 21.67504644 35.86662532
Si 46.84198846 30.48655234 42.31081980
Si 47.93736145 24.66537822 10.81633414
Si 1.41234621 51.50853249 21.31171988
Si 5.99568162 46.96909682 8.59047162
Si 20.43124678 54.28156077 10.26584140
Si 8.33646000 12.47825003 37.21427642
Si 54.71473111 51.13106148 43.55063554
Si 39.38584592 48.52702306 48.79373070
Si 13.52182606 3.14101145 45.73963253
Si 9.60441099 46.72806830 16.22604461
Si 23.99006448 53.41948422 0.24600846
Si 12.86842370 9.50005468 54.57987294
Si 19.32290002 22.62938392 32.94761945
Si 28.03837277 0.34174183 42.45755965
Si 3.04291507 33.01787977 2.16839735
Si 9.14848578 17.25345001 40.77257300
Si 8.89372833 33.50498708 44.69041948
Si 8.98438546 32.62694493 52.91201593
Si 49.53315741 12.17153810 54.05229949
Si 10.10197295 45.90202348 35.55590954
Si 14.37365135 44.59586552 51.09397790
Si 36.87492967 18.56576655 5.69867193
Si 46.65170732 42.01733231 52.13113955
Si 13.85226097 34.13840192 52.29732492
Si 9.30047654 35.49408077 6.87512856
Si 12.09897267 32.06548511 39.67831414
Si 53.59171373 51.23136261 4.08617522
Si 33.22107059 13.58892928 0.58823890
Si 40.82733169 19.70813898 49.82990723
Si 9.95927391 43.60342757 23.45255055
Si 15.89433692 48.59407030 16.64669605
Si 7.38857910 32.76446667 8.03557110
Si 44.84207901 43.10774606 1.49313940
Si 47.02421051 7.02536777 54.41736214
Si 43.75755451 40.58605276 36.04620363
Si 5.11060841 9.28106807 21.49951897
Si 50.33749948 39.39594438 3.05196608
Si 43.12500124 8.53584499 0.90065566
Si 54.52842790 12.62188086 3.17862829
Si 48.48567994 4.59564835 2.84780349
Si 39.33274299 24.23059309 15.17788466
Si 11.41216628 2.30688862 54.12835689
Si 53.48184185 45.78474567 6.09387563
Si 48.47075366 5.75672265 25.14284219
Si 44.35025303 48.05362214 27.27318484
Si 46.62725678 8.92914607 16.09327931
Si 50.52178827 36.54464058 52.30354712
Si 29.68940582 43.58120422 22.09520361
Si 39.46056933 45.92520408 52.44681612
Si 19.88875633 46.74978513 10.54907476
Si 53.46145525 19.02588980 12.41170113
Si 3.56876411 9.00483245 51.82482925
Si 16.60399599 44.83599535 25.29807211
Si 13.47029997 41.53680825 44.60515551
Si 54.37612379 42.83893886 20.30095901
Si 11.51925939 40.72392922 4.61744365
Si 9.13484674 34.41447359 21.26076451
Si 42.93670106 44.01399110 32.19260923
Si 1.70764441 48.14825271 54.28360766
Si 4.44042041 2.92835901 39.09176938
Si 53.03367798 27.73811139 16.21962879
Si 36.12395808 4.34280981 33.51347017
Si 52.53735451 33.25184122 19.09967059
Si 14.95050132 26.09708112 43.08267075
Si 16.71463151 16.49083262 48.41910040
Si 42.70500670 5.66575018 40.56299746
Si 3.70413276 40.96644102 28.50526836
Si 12.69269277 13.71586056 54.59807895
Si 36.11516930 52.72552393 33.53202924
Si 34.05955346 52.37358560 39.22602584